* GENERATED BY CHARMM-GUI (HTTP://WWW.CHARMM-GUI.ORG) V3.1 ON OCT, 03. 2020. JOB
* INPUT GENERATION
*  DATE:    10/ 3/20     19:26:11      CREATED BY USER: apache
*
     59672  EXT
         1         1  QMPE      N              -0.4450191738        5.3874589317       19.5753394517  MEMB      1               0.0000000000
         2         1  QMPE      HN1             0.3698941528        5.1852757137       20.1847687886  MEMB      1               0.0000000000
         3         1  QMPE      HN2            -0.4973802751        6.3919579393       19.3115629577  MEMB      1               0.0000000000
         4         1  QMPE      HN3            -1.3112230973        5.1098870503       20.0861443786  MEMB      1               0.0000000000
         5         1  QMPE      C12            -0.3600340939        4.5440067542       18.3337982375  MEMB      1               0.0000000000
         6         1  QMPE      H12A            0.5526031608        4.8596485774       17.7907378941  MEMB      1               0.0000000000
         7         1  QMPE      H12B           -1.2415177401        4.7666174558       17.6978082701  MEMB      1               0.0000000000
         8         1  QMPE      C11            -0.2129444729        3.0489264642       18.6820665642  MEMB      1               0.0000000000
         9         1  QMPE      H11A            0.7866795274        2.9025321400       19.1489868793  MEMB      1               0.0000000000
        10         1  QMPE      H11B           -0.2123970146        2.4620649965       17.7298860660  MEMB      1               0.0000000000
        11         1  QMPE      P              -2.5429077749        1.9220436841       19.0645386206  MEMB      1               0.0000000000
        12         1  QMPE      O13            -3.1431815648        2.8724811875       18.1060649376  MEMB      1               0.0000000000
        13         1  QMPE      O14            -3.3659094518        1.4983163450       20.2064340364  MEMB      1               0.0000000000
        14         1  QMPE      O11            -2.0383318957        0.6428245680       18.3026657671  MEMB      1               0.0000000000
        15         1  QMPE      O12            -1.2008620051        2.5899864289       19.6063332617  MEMB      1               0.0000000000
        16         1  QMPE      C1             -1.3509672179       -0.3721012550       19.0175137351  MEMB      1               0.0000000000
        17         1  QMPE      HA             -2.0951606363       -0.9658995624       19.5735751409  MEMB      1               0.0000000000
        18         1  QMPE      HB             -0.6595646885        0.0489754394       19.7774335466  MEMB      1               0.0000000000
        19         1  QMPE      C2             -0.4145922020       -1.1854937743       18.0837313779  MEMB      1               0.0000000000
        20         1  QMPE      HS             -0.0410802134       -2.0352739688       18.7094225486  MEMB      1               0.0000000000
        21         1  QMPE      O21             0.6267217876       -0.3367763875       17.6521782800  MEMB      1               0.0000000000
        22         1  QMPE      C21             1.7582812912       -0.9398201226       17.3673870668  MEMB      1               0.0000000000
        23         1  QMPE      O22             2.0047629867       -2.1278112932       17.4750241123  MEMB      1               0.0000000000
        24         1  QMPE      C22             2.6741166831        0.1738119660       16.8710965830  MEMB      1               0.0000000000
        25         1  QMPE      H2R             3.0028739528        0.7149246260       17.7751866344  MEMB      1               0.0000000000
        26         1  QMPE      H2S             2.0791480405        0.8915642651       16.2690174446  MEMB      1               0.0000000000
        27         1  QMPE      C3             -1.1063154170       -1.7851523296       16.8464783667  MEMB      1               0.0000000000
        28         1  QMPE      HX             -1.6901331021       -2.3746882705       17.4338581454  MEMB      1               0.0000000000
        29         1  QMPE      HY             -0.5734944129       -2.5557570178       16.2391956540  MEMB      1               0.0000000000
        30         1  QMPE      O31            -2.0731074388       -0.9590171654       16.1845591257  MEMB      1               0.0000000000
        31         1  QMPE      C31            -1.4631071698       -0.4883978293       15.1296780670  MEMB      1               0.0000000000
        32         1  QMPE      O32            -0.5005539638       -1.0218914242       14.5982025238  MEMB      1               0.0000000000
        33         1  QMPE      C32            -2.0603699194        0.8266197171       14.7092858322  MEMB      1               0.0000000000
        34         1  QMPE      H2X            -3.1553110096        0.7138767155       14.5758609534  MEMB      1               0.0000000000
        35         1  QMPE      H2Y            -1.8547137402        1.5625701851       15.5175546540  MEMB      1               0.0000000000
        36         1  QMPE      C23             3.8897874341       -0.3554275747       16.0918128241  MEMB      1               0.0000000000
        37         1  QMPE      H3R             4.4762537656       -1.0593532777       16.7227846572  MEMB      1               0.0000000000
        38         1  QMPE      H3S             4.5786779212        0.4699738331       15.8008944401  MEMB      1               0.0000000000
        39         1  QMPE      C24             3.5063079376       -1.0240179044       14.7805669553  MEMB      1               0.0000000000
        40         1  QMPE      H4R             2.7930419072       -1.8595516786       14.9475674516  MEMB      1               0.0000000000
        41         1  QMPE      H4S             4.4363687039       -1.4673448748       14.3784630142  MEMB      1               0.0000000000
        42         1  QMPE      C25             2.9521217949       -0.0229311171       13.7641132564  MEMB      1               0.0000000000
        43         1  QMPE      H5R             3.7623110968        0.6634865178       13.4329398253  MEMB      1               0.0000000000
        44         1  QMPE      H5S             2.1159721549        0.5762301781       14.1780496518  MEMB      1               0.0000000000
        45         1  QMPE      C26             2.3137960079       -0.7298691452       12.5878818058  MEMB      1               0.0000000000
        46         1  QMPE      H6R             1.5999080445       -1.4870844024       12.9911996015  MEMB      1               0.0000000000
        47         1  QMPE      H6S             3.0980515570       -1.2813077132       12.0785146403  MEMB      1               0.0000000000
        48         1  QMPE      C27             1.6738271980        0.2273943495       11.5445842790  MEMB      1               0.0000000000
        49         1  QMPE      H7R             2.4997395505        0.8244110611       11.1079792065  MEMB      1               0.0000000000
        50         1  QMPE      H7S             0.8303331325        0.7589329210       11.9660110278  MEMB      1               0.0000000000
        51         1  QMPE      C28             0.9606299732       -0.4421587036       10.3781665274  MEMB      1               0.0000000000
        52         1  QMPE      H8R             0.9819388500       -1.3613481642       11.0129674140  MEMB      1               0.0000000000
        53         1  QMPE      H8S             1.5339769807       -0.3254139049        9.4157432810  MEMB      1               0.0000000000
        54         1  QMPE      C29            -0.4143749076       -0.4246757610        9.9346911344  MEMB      1               0.0000000000
        55         1  QMPE      H9R            -0.7108451219        0.5884633004        9.7419277457  MEMB      1               0.0000000000
        56         1  QMPE      C217           -1.2985185189       -1.5597431599       10.3911610443  MEMB      1               0.0000000000
        57         1  QMPE      H17R           -0.7591657729       -2.4151723179       10.8195756078  MEMB      1               0.0000000000
        58         1  QMPE      H17S           -2.2269821240       -1.1827256084       10.7394421278  MEMB      1               0.0000000000
        59         1  QMPE      C210           -1.0855578037       -1.3370974805        8.8989126468  MEMB      1               0.0000000000
        60         1  QMPE      H10R           -1.6985832031       -0.7345058658        8.2319153419  MEMB      1               0.0000000000
        61         1  QMPE      C211           -0.7740383950       -2.6250677062        8.2769132113  MEMB      1               0.0000000000
        62         1  QMPE      H11R           -0.3730263903       -3.3091795408        9.0457865104  MEMB      1               0.0000000000
        63         1  QMPE      H11S           -1.5961403378       -3.2393843924        7.9285222766  MEMB      1               0.0000000000
        64         1  QMPE      C212           -0.1074317837       -2.3043542968        6.9675334779  MEMB      1               0.0000000000
        65         1  QMPE      H12R            0.8456368205       -1.7181865807        7.1691250805  MEMB      1               0.0000000000
        66         1  QMPE      H12S           -0.5828127652       -1.7443894854        6.1590031361  MEMB      1               0.0000000000
        67         1  QMPE      C213            0.2978202832       -3.6145529451        6.4022669193  MEMB      1               0.0000000000
        68         1  QMPE      H13R            0.3608994790       -4.3626169286        7.1905285780  MEMB      1               0.0000000000
        69         1  QMPE      H13S            1.2159886685       -3.1498262732        6.0580690952  MEMB      1               0.0000000000
        70         1  QMPE      C214           -0.3037680401       -4.7885995064        5.8114225848  MEMB      1               0.0000000000
        71         1  QMPE      H14R           -1.0992336538       -5.0289550113        6.5657879845  MEMB      1               0.0000000000
        72         1  QMPE      H14S            0.0940985517       -5.8324902694        5.6928666974  MEMB      1               0.0000000000
        73         1  QMPE      C215           -0.5039231025       -3.9403559994        4.6116045349  MEMB      1               0.0000000000
        74         1  QMPE      H15R           -1.0869869285       -3.0232528510        4.7251645534  MEMB      1               0.0000000000
        75         1  QMPE      H15S           -1.1369934544       -4.7973485784        4.7257212343  MEMB      1               0.0000000000
        76         1  QMPE      C216            0.1393185353       -3.9239689301        3.2480362339  MEMB      1               0.0000000000
        77         1  QMPE      H16R           -0.3841558592       -3.5811247367        2.3397227649  MEMB      1               0.0000000000
        78         1  QMPE      H16S            0.0059888645       -4.9746075152        2.9835537647  MEMB      1               0.0000000000
        79         1  QMPE      H16T            1.1125013755       -3.4464720400        3.2329223577  MEMB      1               0.0000000000
        80         1  QMPE      C33            -1.3010263027        1.2464631327       13.4428596052  MEMB      1               0.0000000000
        81         1  QMPE      H3X            -1.3892957726        0.4501231943       12.6653774155  MEMB      1               0.0000000000
        82         1  QMPE      H3Y            -0.2248972197        1.3315541296       13.7246483615  MEMB      1               0.0000000000
        83         1  QMPE      C34            -1.7848783984        2.5558515236       12.8183325701  MEMB      1               0.0000000000
        84         1  QMPE      H4X            -1.7967188789        3.3764827984       13.5677975537  MEMB      1               0.0000000000
        85         1  QMPE      H4Y            -2.8260087296        2.3823525374       12.4609632202  MEMB      1               0.0000000000
        86         1  QMPE      C35            -0.9216931074        3.0537699781       11.6490643494  MEMB      1               0.0000000000
        87         1  QMPE      H5X            -1.4578740482        3.9141258709       11.1957012679  MEMB      1               0.0000000000
        88         1  QMPE      H5Y            -0.8347566392        2.2608346229       10.8810918255  MEMB      1               0.0000000000
        89         1  QMPE      C36             0.4789157900        3.5216456918       12.0725326863  MEMB      1               0.0000000000
        90         1  QMPE      H6X             1.1155099543        2.6257405675       12.1827641372  MEMB      1               0.0000000000
        91         1  QMPE      H6Y             0.4056335474        4.0366647396       13.0542448597  MEMB      1               0.0000000000
        92         1  QMPE      C37             1.2166856647        4.4655867791       11.1098994517  MEMB      1               0.0000000000
        93         1  QMPE      H7X             0.7152358703        5.4590614569       11.0942902824  MEMB      1               0.0000000000
        94         1  QMPE      H7Y             2.2430453243        4.5948432162       11.5268128475  MEMB      1               0.0000000000
        95         1  QMPE      C38             1.2858194415        3.9555988097        9.6688990585  MEMB      1               0.0000000000
        96         1  QMPE      H8X             0.3947325828        3.3318223604        9.4609109099  MEMB      1               0.0000000000
        97         1  QMPE      H8Y             1.2127830904        4.8170149887        8.9658883584  MEMB      1               0.0000000000
        98         1  QMPE      C39             2.5390445610        3.1145910505        9.3965076421  MEMB      1               0.0000000000
        99         1  QMPE      H9X             2.7832350613        2.5053985468       10.2825240852  MEMB      1               0.0000000000
       100         1  QMPE      H9Y             3.3994936050        3.7918113617        9.2498747587  MEMB      1               0.0000000000
       101         1  QMPE      C310            2.3645793577        2.1420635488        8.2282774088  MEMB      1               0.0000000000
       102         1  QMPE      H10X            1.4245762633        1.5598666564        8.3768780359  MEMB      1               0.0000000000
       103         1  QMPE      H10Y            3.1971886280        1.4032577438        8.2214993155  MEMB      1               0.0000000000
       104         1  QMPE      C311            2.3113104082        2.8730649305        6.8853196707  MEMB      1               0.0000000000
       105         1  QMPE      H11X            3.2937573471        3.3576683561        6.6958739907  MEMB      1               0.0000000000
       106         1  QMPE      H11Y            1.5687868372        3.6975480825        6.9875327926  MEMB      1               0.0000000000
       107         1  QMPE      C312            1.8792819806        1.9443493593        5.7371588040  MEMB      1               0.0000000000
       108         1  QMPE      H12X            1.9041323328        2.4497617371        4.7471155721  MEMB      1               0.0000000000
       109         1  QMPE      H12Y            0.8233366505        1.6654570740        5.9634457492  MEMB      1               0.0000000000
       110         1  QMPE      C313            2.6558680671        0.6243780141        5.6225545958  MEMB      1               0.0000000000
       111         1  QMPE      H13X            3.7254463796        0.8123510765        5.3945742636  MEMB      1               0.0000000000
       112         1  QMPE      H13Y            2.6267780116        0.1296024937        6.6198878115  MEMB      1               0.0000000000
       113         1  QMPE      C314            1.9893970625       -0.3513886381        4.6248896586  MEMB      1               0.0000000000
       114         1  QMPE      H14X            0.8891039214       -0.1778560604        4.6561878040  MEMB      1               0.0000000000
       115         1  QMPE      H14Y            2.1799613482       -1.3819610226        5.0060195915  MEMB      1               0.0000000000
       116         1  QMPE      C315            2.4551640055       -0.2782225376        3.1634060383  MEMB      1               0.0000000000
       117         1  QMPE      H15X            2.1138210968       -1.1573944145        2.5728510869  MEMB      1               0.0000000000
       118         1  QMPE      H15Y            2.0489174885        0.6244833211        2.6596090747  MEMB      1               0.0000000000
       119         1  QMPE      H15Z            3.5625054393       -0.2637564374        3.1232992228  MEMB      1               0.0000000000
       120         2  PMPE      N              -3.0582641925       -3.2170614526       19.5150390468  MEMB      2               0.0000000000
       121         2  PMPE      HN1            -3.0323027469       -3.9387362287       20.2579601974  MEMB      2               0.0000000000
       122         2  PMPE      HN2            -2.2538958873       -2.5634121887       19.6878529146  MEMB      2               0.0000000000
       123         2  PMPE      HN3            -3.9489481567       -2.6668828729       19.5267394935  MEMB      2               0.0000000000
       124         2  PMPE      C12            -2.8782693090       -4.0171615721       18.2597102809  MEMB      2               0.0000000000
       125         2  PMPE      H12A           -3.1704998928       -3.3338543758       17.4320736423  MEMB      2               0.0000000000
       126         2  PMPE      H12B           -3.6337426676       -4.7895512867       18.1305566201  MEMB      2               0.0000000000
       127         2  PMPE      C11            -1.4567388084       -4.6309720404       18.2977558557  MEMB      2               0.0000000000
       128         2  PMPE      H11A           -0.6356255612       -3.8977954156       18.4855777050  MEMB      2               0.0000000000
       129         2  PMPE      H11B           -1.2416163674       -5.0579894786       17.2876293214  MEMB      2               0.0000000000
       130         2  PMPE      P              -0.0409114824       -6.5030042381       19.2932069880  MEMB      2               0.0000000000
       131         2  PMPE      O13            -0.1306378578       -7.6303873544       20.2546665955  MEMB      2               0.0000000000
       132         2  PMPE      O14             1.0645546056       -5.5377316718       19.4145288929  MEMB      2               0.0000000000
       133         2  PMPE      O11            -0.0937629160       -7.1438185296       17.8536800529  MEMB      2               0.0000000000
       134         2  PMPE      O12            -1.3897584430       -5.6205124095       19.3360933010  MEMB      2               0.0000000000
       135         2  PMPE      C1             -0.9581834698       -8.2488254897       17.5502656120  MEMB      2               0.0000000000
       136         2  PMPE      HA             -1.9442358755       -7.8519344269       17.2182846810  MEMB      2               0.0000000000
       137         2  PMPE      HB             -1.1625832505       -8.8949400464       18.4298160993  MEMB      2               0.0000000000
       138         2  PMPE      C2             -0.3546667855       -9.2103404903       16.4725123750  MEMB      2               0.0000000000
       139         2  PMPE      HS              0.1302933418      -10.0643513178       17.0025350373  MEMB      2               0.0000000000
       140         2  PMPE      O21             0.5498124325       -8.4918978215       15.6158561669  MEMB      2               0.0000000000
       141         2  PMPE      C21             1.6895008812       -9.0506608937       15.2976163088  MEMB      2               0.0000000000
       142         2  PMPE      O22             2.0944312201      -10.1200583930       15.7281039043  MEMB      2               0.0000000000
       143         2  PMPE      C22             2.4014880774       -8.1596867082       14.2677662529  MEMB      2               0.0000000000
       144         2  PMPE      H2R             1.6398105101       -7.6450587695       13.6489584968  MEMB      2               0.0000000000
       145         2  PMPE      H2S             2.9680722980       -8.8329884793       13.5962930985  MEMB      2               0.0000000000
       146         2  PMPE      C3             -1.4645999491       -9.8264146023       15.5985811084  MEMB      2               0.0000000000
       147         2  PMPE      HX             -2.1093611671      -10.4448430784       16.2681349609  MEMB      2               0.0000000000
       148         2  PMPE      HY             -0.9599386175      -10.4726455507       14.8408205577  MEMB      2               0.0000000000
       149         2  PMPE      O31            -2.1848843420       -8.7440477217       14.9830874646  MEMB      2               0.0000000000
       150         2  PMPE      C31            -3.2555903419       -9.0422730258       14.2920894320  MEMB      2               0.0000000000
       151         2  PMPE      O32            -3.7539126380      -10.1507742037       14.1871448955  MEMB      2               0.0000000000
       152         2  PMPE      C32            -3.7460081353       -7.7516090410       13.6318358529  MEMB      2               0.0000000000
       153         2  PMPE      H2X            -2.9267881706       -7.0189812328       13.5416700217  MEMB      2               0.0000000000
       154         2  PMPE      H2Y            -4.4858850735       -7.3544691018       14.3325329338  MEMB      2               0.0000000000
       155         2  PMPE      C23             3.3489136664       -7.1197954350       14.9176254634  MEMB      2               0.0000000000
       156         2  PMPE      H3R             3.7196080782       -7.5317615353       15.8888709582  MEMB      2               0.0000000000
       157         2  PMPE      H3S             2.8109207475       -6.1749176977       15.1502313209  MEMB      2               0.0000000000
       158         2  PMPE      C24             4.5985610158       -6.7831531379       14.0922989356  MEMB      2               0.0000000000
       159         2  PMPE      H4R             5.0972126769       -7.7190311642       13.7654364406  MEMB      2               0.0000000000
       160         2  PMPE      H4S             5.2796386748       -6.2466787465       14.7957721542  MEMB      2               0.0000000000
       161         2  PMPE      C25             4.4423725133       -5.9377725410       12.8222941071  MEMB      2               0.0000000000
       162         2  PMPE      H5R             3.8003280548       -6.3858987972       12.0390634045  MEMB      2               0.0000000000
       163         2  PMPE      H5S             5.4667750815       -5.8305372715       12.3764324587  MEMB      2               0.0000000000
       164         2  PMPE      C26             3.9386545677       -4.5402903637       13.0484094433  MEMB      2               0.0000000000
       165         2  PMPE      H6R             4.5692520256       -4.0522032467       13.8052265614  MEMB      2               0.0000000000
       166         2  PMPE      H6S             2.8761537946       -4.4350869142       13.3584450877  MEMB      2               0.0000000000
       167         2  PMPE      C27             4.1953813986       -3.7413134075       11.8059602646  MEMB      2               0.0000000000
       168         2  PMPE      H7R             5.2347832975       -3.8199508358       11.4394468457  MEMB      2               0.0000000000
       169         2  PMPE      H7S             4.0994339732       -2.7332758876       12.1997189979  MEMB      2               0.0000000000
       170         2  PMPE      C28             3.3648519175       -4.0969652780       10.6102995102  MEMB      2               0.0000000000
       171         2  PMPE      H8R             2.2902293110       -4.2501387708       10.9197822897  MEMB      2               0.0000000000
       172         2  PMPE      H8S             3.6676149384       -5.0255153295       10.1186367613  MEMB      2               0.0000000000
       173         2  PMPE      C29             3.7515492870       -3.0731311861        9.5593523565  MEMB      2               0.0000000000
       174         2  PMPE      H9R             4.5686956922       -2.3403167944        9.6916050505  MEMB      2               0.0000000000
       175         2  PMPE      C217            2.5429050842       -2.3493999094        9.7516644729  MEMB      2               0.0000000000
       176         2  PMPE      H17R            2.9427035253       -1.3949263697       10.0355235216  MEMB      2               0.0000000000
       177         2  PMPE      H17S            1.5732617503       -2.7866905133       10.0615405282  MEMB      2               0.0000000000
       178         2  PMPE      C210            2.9062992401       -2.7970438719        8.4136337709  MEMB      2               0.0000000000
       179         2  PMPE      H10R            2.8394435838       -1.8733486294        7.7798687316  MEMB      2               0.0000000000
       180         2  PMPE      C211            2.1657328767       -4.0302191886        8.2767163408  MEMB      2               0.0000000000
       181         2  PMPE      H11R            1.3227888860       -3.4261725273        8.3009743041  MEMB      2               0.0000000000
       182         2  PMPE      H11S            1.4249327614       -4.4885721167        8.9839831521  MEMB      2               0.0000000000
       183         2  PMPE      C212            2.5563442652       -4.9849133250        7.1273803643  MEMB      2               0.0000000000
       184         2  PMPE      H12R            1.7944525506       -5.7986561834        7.2219380350  MEMB      2               0.0000000000
       185         2  PMPE      H12S            3.4761209538       -5.2777339983        7.6306785610  MEMB      2               0.0000000000
       186         2  PMPE      C213            2.6897327868       -4.6712160624        5.5706027036  MEMB      2               0.0000000000
       187         2  PMPE      H13R            3.3535403850       -3.8440630758        5.3300407126  MEMB      2               0.0000000000
       188         2  PMPE      H13S            1.9277639938       -4.2373174001        4.9000718787  MEMB      2               0.0000000000
       189         2  PMPE      C214            2.5224943369       -5.9581431430        4.8088929050  MEMB      2               0.0000000000
       190         2  PMPE      H14R            1.8191710677       -6.6469119242        5.3458582217  MEMB      2               0.0000000000
       191         2  PMPE      H14S            3.5707404293       -6.2243137387        4.8812808679  MEMB      2               0.0000000000
       192         2  PMPE      C215            2.0985479355       -5.9277185405        3.3559465592  MEMB      2               0.0000000000
       193         2  PMPE      H15R            2.2672670194       -4.9531036117        2.8332412493  MEMB      2               0.0000000000
       194         2  PMPE      H15S            1.0516621361       -6.3180221174        3.2995295586  MEMB      2               0.0000000000
       195         2  PMPE      C216            2.6970394619       -7.0242578889        2.5931928512  MEMB      2               0.0000000000
       196         2  PMPE      H16R            2.1614639129       -7.0821003517        1.6181064629  MEMB      2               0.0000000000
       197         2  PMPE      H16S            3.7780084352       -6.8085985072        2.5139635973  MEMB      2               0.0000000000
       198         2  PMPE      H16T            2.4569236189       -7.9132681221        3.2212670816  MEMB      2               0.0000000000
       199         2  PMPE      C33            -4.3302456305       -8.0006998293       12.2382694610  MEMB      2               0.0000000000
       200         2  PMPE      H3X            -4.8517209343       -7.1066955442       11.8239801117  MEMB      2               0.0000000000
       201         2  PMPE      H3Y            -5.0499736009       -8.8171227889       12.3683307726  MEMB      2               0.0000000000
       202         2  PMPE      C34            -3.2758245822       -8.5163079997       11.2635892534  MEMB      2               0.0000000000
       203         2  PMPE      H4X            -3.1566077890       -9.6078395965       11.4695163947  MEMB      2               0.0000000000
       204         2  PMPE      H4Y            -2.3167344806       -7.9929125985       11.4097419941  MEMB      2               0.0000000000
       205         2  PMPE      C35            -3.7021778857       -8.4652920449        9.8169739349  MEMB      2               0.0000000000
       206         2  PMPE      H5X            -4.8081453141       -8.3032047809        9.8519504148  MEMB      2               0.0000000000
       207         2  PMPE      H5Y            -3.4784822912       -9.4639673004        9.3705955955  MEMB      2               0.0000000000
       208         2  PMPE      C36            -3.0566244076       -7.4207262842        8.9011627979  MEMB      2               0.0000000000
       209         2  PMPE      H6X            -3.2003936765       -7.7164033559        7.8287071423  MEMB      2               0.0000000000
       210         2  PMPE      H6Y            -1.9710152883       -7.3759290336        9.0936303698  MEMB      2               0.0000000000
       211         2  PMPE      C37            -3.7860144168       -6.0959612251        9.0665670475  MEMB      2               0.0000000000
       212         2  PMPE      H7X            -3.8378395948       -5.7544047998       10.1119515530  MEMB      2               0.0000000000
       213         2  PMPE      H7Y            -4.8082667154       -6.3927404441        8.9553235804  MEMB      2               0.0000000000
       214         2  PMPE      C38            -3.3704244158       -4.9985068200        8.0863001781  MEMB      2               0.0000000000
       215         2  PMPE      H8X            -2.3507859066       -4.8155683047        8.4684865557  MEMB      2               0.0000000000
       216         2  PMPE      H8Y            -3.9255915810       -4.0468223867        8.2053707109  MEMB      2               0.0000000000
       217         2  PMPE      C39            -3.3446678507       -5.3600238413        6.5765109362  MEMB      2               0.0000000000
       218         2  PMPE      H9X            -4.2308451596       -5.8975127687        6.2621369291  MEMB      2               0.0000000000
       219         2  PMPE      H9Y            -2.5478167804       -6.1356086195        6.4765706095  MEMB      2               0.0000000000
       220         2  PMPE      C310           -3.1559262699       -4.0960026628        5.6735913400  MEMB      2               0.0000000000
       221         2  PMPE      H10X           -2.2841146004       -3.6027732206        6.1123969972  MEMB      2               0.0000000000
       222         2  PMPE      H10Y           -3.6120179112       -3.1646862382        5.9801217917  MEMB      2               0.0000000000
       223         2  PMPE      C311           -3.2037309223       -4.1332299755        4.0827483856  MEMB      2               0.0000000000
       224         2  PMPE      H11X           -3.1368516883       -3.0786505960        3.7123263625  MEMB      2               0.0000000000
       225         2  PMPE      H11Y           -4.0124807205       -4.5444719949        3.5643717897  MEMB      2               0.0000000000
       226         2  PMPE      C312           -2.4756101969       -5.1826269472        3.1596689493  MEMB      2               0.0000000000
       227         2  PMPE      H12X           -1.7738226853       -5.9691106599        3.5423868493  MEMB      2               0.0000000000
       228         2  PMPE      H12Y           -1.9979364524       -4.2548309834        2.8602665499  MEMB      2               0.0000000000
       229         2  PMPE      C313           -2.4072927495       -5.2136564979        1.6766785454  MEMB      2               0.0000000000
       230         2  PMPE      H13X           -2.9624902254       -4.3948161061        1.1799852574  MEMB      2               0.0000000000
       231         2  PMPE      H13Y           -2.8878263759       -6.1323832902        1.8119959996  MEMB      2               0.0000000000
       232         2  PMPE      C314           -1.3423598939       -6.0073096538        0.9441071680  MEMB      2               0.0000000000
       233         2  PMPE      H14X           -1.1850827465       -6.9855709156        1.4826255349  MEMB      2               0.0000000000
       234         2  PMPE      H14Y           -0.4088406600       -5.4448960874        0.8792401234  MEMB      2               0.0000000000
       235         2  PMPE      C315           -1.8907291259       -6.2174333795       -0.4423613460  MEMB      2               0.0000000000
       236         2  PMPE      H15X           -1.1658597038       -6.5238917832       -1.1998707621  MEMB      2               0.0000000000
       237         2  PMPE      H15Y           -2.3640393697       -5.2421217861       -0.7518756214  MEMB      2               0.0000000000
       238         2  PMPE      C316           -2.8984567697       -7.2941375959       -0.4643046408  MEMB      2               0.0000000000
       239         2  PMPE      H16X           -3.4297737641       -7.1733944643       -1.4424195407  MEMB      2               0.0000000000
       240         2  PMPE      H16Y           -3.5666272908       -7.0891447364        0.4009089671  MEMB      2               0.0000000000
       241         2  PMPE      H16Z           -2.6757508187       -8.3545045412       -0.3284071578  MEMB      2               0.0000000000
       242         3  PYPG      C13             4.1643181295       -1.8090878537       19.9306989188  MEMB      3               0.0000000000
       243         3  PYPG      H13A            3.1279268484       -1.5164002976       20.2042488128  MEMB      3               0.0000000000
       244         3  PYPG      H13B            4.1952332005       -1.9994363226       18.8375313155  MEMB      3               0.0000000000
       245         3  PYPG      OC3             4.4867628049       -3.0124305400       20.6473100560  MEMB      3               0.0000000000
       246         3  PYPG      HO3             3.7639464305       -3.6380512165       20.4631325977  MEMB      3               0.0000000000
       247         3  PYPG      C12             5.0530802502       -0.5754851197       20.2743797357  MEMB      3               0.0000000000
       248         3  PYPG      H12A            4.9512243177       -0.3774963777       21.3553817685  MEMB      3               0.0000000000
       249         3  PYPG      OC2             4.5732303913        0.5792117890       19.5926608438  MEMB      3               0.0000000000
       250         3  PYPG      HO2             5.3328051546        1.1753506488       19.6186668354  MEMB      3               0.0000000000
       251         3  PYPG      C11             6.5625196088       -0.6921288430       20.0207157877  MEMB      3               0.0000000000
       252         3  PYPG      H11A            7.0217233123       -1.3844070626       20.7596266852  MEMB      3               0.0000000000
       253         3  PYPG      H11B            7.0021112509        0.3231883413       20.2146240199  MEMB      3               0.0000000000
       254         3  PYPG      P               8.1139331709       -0.6755977472       17.9881865151  MEMB      3               0.0000000000
       255         3  PYPG      O13             9.2761286874       -1.0940537074       18.7938097226  MEMB      3               0.0000000000
       256         3  PYPG      O14             7.9415430874        0.7369177705       17.6064082538  MEMB      3               0.0000000000
       257         3  PYPG      O11             8.0553931637       -1.5825956759       16.7009677247  MEMB      3               0.0000000000
       258         3  PYPG      O12             6.7881261744       -1.1589595097       18.6934033688  MEMB      3               0.0000000000
       259         3  PYPG      C1              7.5811655335       -2.9249610635       16.8398486216  MEMB      3               0.0000000000
       260         3  PYPG      HA              6.5111633416       -2.9775493196       17.1147075459  MEMB      3               0.0000000000
       261         3  PYPG      HB              8.1872216820       -3.4738022092       17.5998310108  MEMB      3               0.0000000000
       262         3  PYPG      C2              7.5448723521       -3.6274440163       15.4927783026  MEMB      3               0.0000000000
       263         3  PYPG      HS              7.2854247111       -4.6871465198       15.6121811349  MEMB      3               0.0000000000
       264         3  PYPG      O21             8.8195821850       -3.7137322702       15.1090596549  MEMB      3               0.0000000000
       265         3  PYPG      C21             8.9956975823       -4.2530542590       13.8894167639  MEMB      3               0.0000000000
       266         3  PYPG      O22             8.2326633997       -4.6775724244       13.0721827034  MEMB      3               0.0000000000
       267         3  PYPG      C22            10.3792008698       -4.5641097490       13.7696574526  MEMB      3               0.0000000000
       268         3  PYPG      H2R            11.0070730559       -4.8668630355       14.6026572785  MEMB      3               0.0000000000
       269         3  PYPG      H2S            10.2774668466       -3.4692937096       13.9226411621  MEMB      3               0.0000000000
       270         3  PYPG      C3              6.6846553502       -2.9372412757       14.4115149049  MEMB      3               0.0000000000
       271         3  PYPG      HX              5.6933989358       -2.8840717009       14.8602158412  MEMB      3               0.0000000000
       272         3  PYPG      HY              6.5686666666       -3.5517823348       13.5071325676  MEMB      3               0.0000000000
       273         3  PYPG      O31             7.1417596283       -1.6375781045       14.0758413694  MEMB      3               0.0000000000
       274         3  PYPG      C31             6.8500325319       -1.1548526960       12.9019106513  MEMB      3               0.0000000000
       275         3  PYPG      O32             6.4655719456       -1.7450763111       11.9102943520  MEMB      3               0.0000000000
       276         3  PYPG      C32             6.9750635328        0.3156517776       13.0521495910  MEMB      3               0.0000000000
       277         3  PYPG      H2X             6.1284542673        0.8141798025       12.5352636286  MEMB      3               0.0000000000
       278         3  PYPG      H2Y             6.8285131258        0.4969410138       14.1519536682  MEMB      3               0.0000000000
       279         3  PYPG      C23            10.9437826407       -5.1466417600       12.4374812938  MEMB      3               0.0000000000
       280         3  PYPG      H3R            10.2620635404       -4.6750351772       11.7313847648  MEMB      3               0.0000000000
       281         3  PYPG      H3S            10.7066016270       -6.1987780541       12.3691412250  MEMB      3               0.0000000000
       282         3  PYPG      C24            12.4536010243       -5.0703284533       11.9414033860  MEMB      3               0.0000000000
       283         3  PYPG      H4R            13.0337896278       -5.8002472703       12.4956163507  MEMB      3               0.0000000000
       284         3  PYPG      H4S            13.2132492307       -4.3786182259       12.2850742528  MEMB      3               0.0000000000
       285         3  PYPG      C25            12.7564649998       -4.7505319582       10.3717270654  MEMB      3               0.0000000000
       286         3  PYPG      H5R            12.0948118816       -5.5820893202       10.0702426861  MEMB      3               0.0000000000
       287         3  PYPG      H5S            13.7186258809       -4.2897767500       10.0899714305  MEMB      3               0.0000000000
       288         3  PYPG      C26            12.2626093935       -4.3558600701        8.9240700423  MEMB      3               0.0000000000
       289         3  PYPG      H6R            12.1387210682       -3.3659330389        8.7563101074  MEMB      3               0.0000000000
       290         3  PYPG      H6S            11.4175590034       -4.9200886179        8.5261188435  MEMB      3               0.0000000000
       291         3  PYPG      C27            13.0107187901       -4.4380581611        7.6103419254  MEMB      3               0.0000000000
       292         3  PYPG      H7R            12.6929918614       -5.4473247243        7.2843613451  MEMB      3               0.0000000000
       293         3  PYPG      H7S            14.0179962461       -4.1200833175        7.8649067628  MEMB      3               0.0000000000
       294         3  PYPG      C28            12.7390063687       -3.7645955281        6.3160150887  MEMB      3               0.0000000000
       295         3  PYPG      H8R            12.8014711637       -2.6954326737        6.4259366219  MEMB      3               0.0000000000
       296         3  PYPG      H8S            12.0041175679       -3.1587911629        6.0351015768  MEMB      3               0.0000000000
       297         3  PYPG      C29            12.7235614446       -4.5988024599        5.1209989256  MEMB      3               0.0000000000
       298         3  PYPG      H9R            13.8040946290       -4.6836670931        5.0788370360  MEMB      3               0.0000000000
       299         3  PYPG      C210           11.8755326399       -4.7477644971        4.0424802301  MEMB      3               0.0000000000
       300         3  PYPG      H10R           12.5217449406       -4.9342116046        3.2098534297  MEMB      3               0.0000000000
       301         3  PYPG      C211           10.4969377449       -4.1654089078        3.4124920170  MEMB      3               0.0000000000
       302         3  PYPG      H11R           10.2290059780       -3.1618512249        3.3803058454  MEMB      3               0.0000000000
       303         3  PYPG      H11S            9.6225778500       -4.4648399954        3.9747937250  MEMB      3               0.0000000000
       304         3  PYPG      C212           10.2291192026       -3.3551856332        2.0470742101  MEMB      3               0.0000000000
       305         3  PYPG      H12R           10.8717802868       -2.4787397078        1.7168801110  MEMB      3               0.0000000000
       306         3  PYPG      H12S            9.2142606155       -2.8574401271        1.9288837319  MEMB      3               0.0000000000
       307         3  PYPG      C213           10.5036610305       -4.6634271565        1.5025902846  MEMB      3               0.0000000000
       308         3  PYPG      H13R            9.6507815005       -5.2909162372        1.7928455585  MEMB      3               0.0000000000
       309         3  PYPG      H13S           11.4941504217       -5.1333488278        1.7231918155  MEMB      3               0.0000000000
       310         3  PYPG      C214           10.4153763284       -4.7070691963        0.1361338792  MEMB      3               0.0000000000
       311         3  PYPG      H14R           11.3076035330       -3.9899093310       -0.0682614259  MEMB      3               0.0000000000
       312         3  PYPG      H14S           10.8343531603       -5.5980154921       -0.2849746473  MEMB      3               0.0000000000
       313         3  PYPG      C215            8.8304358769       -4.6156390960       -0.2910254752  MEMB      3               0.0000000000
       314         3  PYPG      H15R            8.6140217974       -3.5190459758        0.0743443501  MEMB      3               0.0000000000
       315         3  PYPG      H15S            8.0678405928       -4.7563036689        0.5006658165  MEMB      3               0.0000000000
       316         3  PYPG      C216            8.4433704812       -5.0134199433       -2.0220360841  MEMB      3               0.0000000000
       317         3  PYPG      H16R            7.4640302853       -4.7901047942       -2.4964175784  MEMB      3               0.0000000000
       318         3  PYPG      H16S            8.9499104756       -5.8984427254       -2.3982272491  MEMB      3               0.0000000000
       319         3  PYPG      H16T            8.9228584215       -4.6059370984       -2.9123474959  MEMB      3               0.0000000000
       320         3  PYPG      C33             8.3872139105        0.8706634573       12.7026950789  MEMB      3               0.0000000000
       321         3  PYPG      H3X             9.0640002649        0.4889858941       13.4998144796  MEMB      3               0.0000000000
       322         3  PYPG      H3Y             8.4282126364        1.9754960851       12.8113911820  MEMB      3               0.0000000000
       323         3  PYPG      C34             8.8142380296        0.4648076361       11.2880593238  MEMB      3               0.0000000000
       324         3  PYPG      H4X             8.1096842567        0.8579981106       10.5316717459  MEMB      3               0.0000000000
       325         3  PYPG      H4Y             8.6864889839       -0.6324319364       11.2907538679  MEMB      3               0.0000000000
       326         3  PYPG      C35            10.2434505495        0.7666855911       10.7876911927  MEMB      3               0.0000000000
       327         3  PYPG      H5X            10.9551769649        0.3810260952       11.5551844149  MEMB      3               0.0000000000
       328         3  PYPG      H5Y            10.4933891600        1.8053461040       10.5666832585  MEMB      3               0.0000000000
       329         3  PYPG      C36            10.4580787274        0.0979202191        9.4384642607  MEMB      3               0.0000000000
       330         3  PYPG      H6X             9.7296196211       -0.6780313130        9.5604594032  MEMB      3               0.0000000000
       331         3  PYPG      H6Y            11.4865788503       -0.2392055974        9.1580270436  MEMB      3               0.0000000000
       332         3  PYPG      C37             9.8420637070        0.3950500048        8.1582224632  MEMB      3               0.0000000000
       333         3  PYPG      H7X             9.8953077509       -0.4825185851        7.4980916148  MEMB      3               0.0000000000
       334         3  PYPG      H7Y             8.7873987588        0.5976093682        8.3197676135  MEMB      3               0.0000000000
       335         3  PYPG      C38            10.7761478824        1.3775036727        7.6158022409  MEMB      3               0.0000000000
       336         3  PYPG      H8X            11.7749029546        0.9839870824        7.8793642903  MEMB      3               0.0000000000
       337         3  PYPG      H8Y            10.6310497445        2.2912654749        8.1853502628  MEMB      3               0.0000000000
       338         3  PYPG      C39            10.5327699523        1.6261360763        6.1686216201  MEMB      3               0.0000000000
       339         3  PYPG      H9X            11.0087420730        2.5626189619        5.8499617343  MEMB      3               0.0000000000
       340         3  PYPG      H9Y             9.4893301628        1.4117638144        5.8526221971  MEMB      3               0.0000000000
       341         3  PYPG      C310           11.2381759926        0.6505999649        5.3969543764  MEMB      3               0.0000000000
       342         3  PYPG      H10X           10.8217970300       -0.2433066503        5.7865354661  MEMB      3               0.0000000000
       343         3  PYPG      H10Y           12.2212702013        0.6023950679        5.7928324529  MEMB      3               0.0000000000
       344         3  PYPG      C311           11.3804369188        0.8825144418        3.9190367597  MEMB      3               0.0000000000
       345         3  PYPG      H11X           12.1371132349        0.2334085954        3.4050939636  MEMB      3               0.0000000000
       346         3  PYPG      H11Y           11.6942228034        1.9170227379        3.8300798230  MEMB      3               0.0000000000
       347         3  PYPG      C312           10.1937910702        0.8880075820        3.1175851628  MEMB      3               0.0000000000
       348         3  PYPG      H12X            9.6824515586       -0.0787858590        3.0511387180  MEMB      3               0.0000000000
       349         3  PYPG      H12Y            9.5879675846        1.6638990623        3.6307578874  MEMB      3               0.0000000000
       350         3  PYPG      C313           10.5794370771        1.3329281296        1.7716406005  MEMB      3               0.0000000000
       351         3  PYPG      H13X           11.0227414580        2.3610584212        1.9024464939  MEMB      3               0.0000000000
       352         3  PYPG      H13Y           11.2581636876        0.7489304320        1.1034551449  MEMB      3               0.0000000000
       353         3  PYPG      C314            9.2957629649        1.5642788671        1.1533863109  MEMB      3               0.0000000000
       354         3  PYPG      H14X            8.5954815223        2.0337571398        1.8813254509  MEMB      3               0.0000000000
       355         3  PYPG      H14Y            9.8908235191        2.1960188845        0.4880823125  MEMB      3               0.0000000000
       356         3  PYPG      C315            8.5442839517        0.4609277177        0.5255478004  MEMB      3               0.0000000000
       357         3  PYPG      H15X            9.2925828490       -0.0712578188       -0.0838103810  MEMB      3               0.0000000000
       358         3  PYPG      H15Y            8.1351026831       -0.1066330324        1.3855961699  MEMB      3               0.0000000000
       359         3  PYPG      C316            7.4132828421        0.8407501118       -0.3883780476  MEMB      3               0.0000000000
       360         3  PYPG      H16X            7.8304514140        1.4512352588       -1.2118855600  MEMB      3               0.0000000000
       361         3  PYPG      H16Y            6.5788024250        1.4131593428        0.0959463898  MEMB      3               0.0000000000
       362         3  PYPG      H16Z            7.0351208896       -0.0338547055       -0.9252528020  MEMB      3               0.0000000000
       363         4  PMPG      C13            -6.6608802968       -3.1048693756       20.7725287250  MEMB      4               0.0000000000
       364         4  PMPG      H13A           -6.7281055757       -3.5472479542       21.7934636934  MEMB      4               0.0000000000
       365         4  PMPG      H13B           -6.4372700977       -3.9261292389       20.0574339738  MEMB      4               0.0000000000
       366         4  PMPG      OC3            -5.5977958529       -2.1265872372       20.7046714494  MEMB      4               0.0000000000
       367         4  PMPG      HO3            -5.9423273422       -1.3764759666       20.1908829044  MEMB      4               0.0000000000
       368         4  PMPG      C12            -8.0954213469       -2.5469361523       20.5294589059  MEMB      4               0.0000000000
       369         4  PMPG      H12A           -8.3496424883       -1.8775512696       21.3802697897  MEMB      4               0.0000000000
       370         4  PMPG      OC2            -9.0534093691       -3.6005078549       20.5463953439  MEMB      4               0.0000000000
       371         4  PMPG      HO2            -9.8351935989       -3.1582285142       20.1851421224  MEMB      4               0.0000000000
       372         4  PMPG      C11            -8.2629518148       -1.7127626005       19.2423796487  MEMB      4               0.0000000000
       373         4  PMPG      H11A           -7.8784129901       -2.2835189785       18.3646815541  MEMB      4               0.0000000000
       374         4  PMPG      H11B           -7.6324473322       -0.8063326443       19.3763655545  MEMB      4               0.0000000000
       375         4  PMPG      P             -10.0958112652       -0.6999171163       17.6914251432  MEMB      4               0.0000000000
       376         4  PMPG      O13            -9.3014341429        0.5126324975       17.3859462872  MEMB      4               0.0000000000
       377         4  PMPG      O14           -11.5671116811       -0.6082584170       17.6175085794  MEMB      4               0.0000000000
       378         4  PMPG      O11            -9.6241918129       -1.8252956911       16.7388357294  MEMB      4               0.0000000000
       379         4  PMPG      O12            -9.6314004744       -1.3186601925       19.0839707064  MEMB      4               0.0000000000
       380         4  PMPG      C1            -10.1958439529       -3.1260225038       16.8101627591  MEMB      4               0.0000000000
       381         4  PMPG      HA            -11.1486024233       -3.1264000826       16.2226981340  MEMB      4               0.0000000000
       382         4  PMPG      HB            -10.4479017219       -3.4612761404       17.8367452685  MEMB      4               0.0000000000
       383         4  PMPG      C2             -9.2180774523       -4.0893296056       16.1265457450  MEMB      4               0.0000000000
       384         4  PMPG      HS             -9.4376832644       -5.1367007396       16.4728436111  MEMB      4               0.0000000000
       385         4  PMPG      O21            -7.8251347747       -3.7065606676       16.2682489444  MEMB      4               0.0000000000
       386         4  PMPG      C21            -6.9039691538       -4.5195638813       16.6713744293  MEMB      4               0.0000000000
       387         4  PMPG      O22            -7.0479974221       -5.5262450698       17.3412170193  MEMB      4               0.0000000000
       388         4  PMPG      C22            -5.5161299180       -4.1664509543       16.0683411551  MEMB      4               0.0000000000
       389         4  PMPG      H2R            -4.8689228169       -5.0426679797       15.8608103437  MEMB      4               0.0000000000
       390         4  PMPG      H2S            -5.1342150073       -3.7061251119       16.9848549057  MEMB      4               0.0000000000
       391         4  PMPG      C3             -9.5821365188       -3.9488743442       14.6469066922  MEMB      4               0.0000000000
       392         4  PMPG      HX            -10.4842756095       -4.5838112407       14.4273064002  MEMB      4               0.0000000000
       393         4  PMPG      HY             -8.6521261109       -4.2573830005       14.1573284670  MEMB      4               0.0000000000
       394         4  PMPG      O31            -9.7920577418       -2.5869940943       14.2483381544  MEMB      4               0.0000000000
       395         4  PMPG      C31           -10.1183582113       -2.4858277982       12.9854307850  MEMB      4               0.0000000000
       396         4  PMPG      O32            -9.8718675610       -3.2276944119       12.0993922564  MEMB      4               0.0000000000
       397         4  PMPG      C32           -10.9029290633       -1.3742622777       12.5497478129  MEMB      4               0.0000000000
       398         4  PMPG      H2X           -10.9090491997       -0.6936814278       13.4070638462  MEMB      4               0.0000000000
       399         4  PMPG      H2Y           -11.9046062829       -1.7939647681       12.2643335904  MEMB      4               0.0000000000
       400         4  PMPG      C23            -5.3909948840       -3.1233646425       14.9290388598  MEMB      4               0.0000000000
       401         4  PMPG      H3R            -4.3915939909       -2.6506338069       15.0873660406  MEMB      4               0.0000000000
       402         4  PMPG      H3S            -6.1991257362       -2.3805863756       15.0848913235  MEMB      4               0.0000000000
       403         4  PMPG      C24            -5.3754202112       -3.5852492332       13.4549712466  MEMB      4               0.0000000000
       404         4  PMPG      H4R            -6.2454764810       -4.2390983398       13.2430799871  MEMB      4               0.0000000000
       405         4  PMPG      H4S            -4.4348766988       -4.1393172449       13.2330307247  MEMB      4               0.0000000000
       406         4  PMPG      C25            -5.4819800746       -2.4126701652       12.4549789000  MEMB      4               0.0000000000
       407         4  PMPG      H5R            -4.5897362570       -1.7532714627       12.5453906725  MEMB      4               0.0000000000
       408         4  PMPG      H5S            -6.3944297434       -1.8176981933       12.6964845831  MEMB      4               0.0000000000
       409         4  PMPG      C26            -5.5183149846       -2.8941807951       10.9990405724  MEMB      4               0.0000000000
       410         4  PMPG      H6R            -6.0471750636       -3.8734312973       10.9459766707  MEMB      4               0.0000000000
       411         4  PMPG      H6S            -4.4656309092       -3.0902474742       10.6952181539  MEMB      4               0.0000000000
       412         4  PMPG      C27            -6.1954024382       -1.9193327171       10.0196640639  MEMB      4               0.0000000000
       413         4  PMPG      H7R            -5.8409238620       -0.8750485484       10.1330639201  MEMB      4               0.0000000000
       414         4  PMPG      H7S            -7.2966018941       -1.9407213549       10.2040279123  MEMB      4               0.0000000000
       415         4  PMPG      C28            -5.9957035223       -2.3626327181        8.5742815104  MEMB      4               0.0000000000
       416         4  PMPG      H8R            -6.0035942826       -3.4777416675        8.6470259876  MEMB      4               0.0000000000
       417         4  PMPG      H8S            -5.0085824053       -2.0446345241        8.1742484354  MEMB      4               0.0000000000
       418         4  PMPG      C29            -7.1581698175       -1.8546505021        7.7145088829  MEMB      4               0.0000000000
       419         4  PMPG      H9R            -8.0754634925       -1.4999820026        8.1936095770  MEMB      4               0.0000000000
       420         4  PMPG      C217           -6.8975543825       -1.1557296934        6.3768737642  MEMB      4               0.0000000000
       421         4  PMPG      H17R           -7.6633651059       -0.4348118488        6.1701796748  MEMB      4               0.0000000000
       422         4  PMPG      H17S           -5.8557752339       -1.0594138561        6.1111999598  MEMB      4               0.0000000000
       423         4  PMPG      C210           -7.3665973044       -2.5760865743        6.4443106248  MEMB      4               0.0000000000
       424         4  PMPG      H10R           -8.3801259847       -2.8770846144        6.1452059295  MEMB      4               0.0000000000
       425         4  PMPG      C211           -6.2873025614       -3.4359310813        6.0266197555  MEMB      4               0.0000000000
       426         4  PMPG      H11R           -5.2959833302       -3.2317123856        6.3375784790  MEMB      4               0.0000000000
       427         4  PMPG      H11S           -6.3583664847       -4.2255096712        6.7963354582  MEMB      4               0.0000000000
       428         4  PMPG      C212           -6.5604489285       -3.5536013504        4.5023835592  MEMB      4               0.0000000000
       429         4  PMPG      H12R           -5.7911075923       -4.1689389745        4.0867848000  MEMB      4               0.0000000000
       430         4  PMPG      H12S           -6.1588479738       -2.6984465222        3.9387949435  MEMB      4               0.0000000000
       431         4  PMPG      C213           -7.9932503525       -3.9997833586        3.9494507650  MEMB      4               0.0000000000
       432         4  PMPG      H13R           -8.9073705543       -3.5355283178        4.2552674236  MEMB      4               0.0000000000
       433         4  PMPG      H13S           -8.3620748931       -5.0701960105        4.0628399322  MEMB      4               0.0000000000
       434         4  PMPG      C214           -7.8292409430       -3.8916925782        2.5050784501  MEMB      4               0.0000000000
       435         4  PMPG      H14R           -7.2921459197       -4.7679130425        2.5554467767  MEMB      4               0.0000000000
       436         4  PMPG      H14S           -7.1253990760       -3.1981509287        2.1203227284  MEMB      4               0.0000000000
       437         4  PMPG      C215           -8.9661714514       -4.0725319382        1.6232254191  MEMB      4               0.0000000000
       438         4  PMPG      H15R           -8.6098493954       -3.7126052216        0.6231819238  MEMB      4               0.0000000000
       439         4  PMPG      H15S           -9.6491669728       -3.3349012547        2.0382992821  MEMB      4               0.0000000000
       440         4  PMPG      C216           -9.6697808329       -5.4115067230        1.6654054264  MEMB      4               0.0000000000
       441         4  PMPG      H16R           -9.0403606099       -6.2488457987        1.3266127463  MEMB      4               0.0000000000
       442         4  PMPG      H16S          -10.4883907369       -5.2156209238        0.9531466849  MEMB      4               0.0000000000
       443         4  PMPG      H16T          -10.1484606772       -5.7642752335        2.5811839358  MEMB      4               0.0000000000
       444         4  PMPG      C33           -10.2183726312       -0.8625392183       11.2617263919  MEMB      4               0.0000000000
       445         4  PMPG      H3X            -9.8630521112       -1.6170373531       10.5032029273  MEMB      4               0.0000000000
       446         4  PMPG      H3Y            -9.3096257567       -0.3263491022       11.6043755325  MEMB      4               0.0000000000
       447         4  PMPG      C34           -11.2273463980        0.0383558109       10.5787183548  MEMB      4               0.0000000000
       448         4  PMPG      H4X           -11.5524169689        0.7883750884       11.3347123695  MEMB      4               0.0000000000
       449         4  PMPG      H4Y           -12.1289792697       -0.5498149001       10.2905898586  MEMB      4               0.0000000000
       450         4  PMPG      C35           -10.7258395948        0.7086460188        9.3127080727  MEMB      4               0.0000000000
       451         4  PMPG      H5X            -9.6576995572        0.9989896438        9.4219181898  MEMB      4               0.0000000000
       452         4  PMPG      H5Y           -11.3555044919        1.6164798291        9.1694032299  MEMB      4               0.0000000000
       453         4  PMPG      C36           -10.8775949748       -0.1955960057        8.0848647317  MEMB      4               0.0000000000
       454         4  PMPG      H6X           -11.9161829828       -0.5982106197        8.0463383460  MEMB      4               0.0000000000
       455         4  PMPG      H6Y           -10.1923156861       -1.0584283972        8.2191195186  MEMB      4               0.0000000000
       456         4  PMPG      C37           -10.4971477829        0.5374733069        6.7939185309  MEMB      4               0.0000000000
       457         4  PMPG      H7X            -9.4506168352        0.9014380391        6.9160525028  MEMB      4               0.0000000000
       458         4  PMPG      H7Y           -11.1381257021        1.4357920381        6.6513894285  MEMB      4               0.0000000000
       459         4  PMPG      C38           -10.4768815759       -0.3614148056        5.5535878716  MEMB      4               0.0000000000
       460         4  PMPG      H8X           -11.3402254431       -1.0491329531        5.4796488081  MEMB      4               0.0000000000
       461         4  PMPG      H8Y            -9.5451152433       -0.9653084442        5.6095914444  MEMB      4               0.0000000000
       462         4  PMPG      C39           -10.3971970902        0.4117529092        4.2565447258  MEMB      4               0.0000000000
       463         4  PMPG      H9X            -9.9290066168        1.3922487188        4.4657438812  MEMB      4               0.0000000000
       464         4  PMPG      H9Y           -11.4000166800        0.5650441291        3.7961535429  MEMB      4               0.0000000000
       465         4  PMPG      C310           -9.5131744749       -0.2883592004        3.2532180723  MEMB      4               0.0000000000
       466         4  PMPG      H10X           -9.9796834126       -1.2451760971        2.9442885388  MEMB      4               0.0000000000
       467         4  PMPG      H10Y           -8.5080020933       -0.5058254069        3.7025775967  MEMB      4               0.0000000000
       468         4  PMPG      C311           -9.3514790556        0.6650072038        2.0732976347  MEMB      4               0.0000000000
       469         4  PMPG      H11X           -8.5343202117        1.3935222450        2.3531797404  MEMB      4               0.0000000000
       470         4  PMPG      H11Y          -10.3057787999        1.0331939194        1.6379795921  MEMB      4               0.0000000000
       471         4  PMPG      C312           -8.7326290361        0.1960122557        0.8552743401  MEMB      4               0.0000000000
       472         4  PMPG      H12X           -9.3395340625       -0.6467679611        0.4738716591  MEMB      4               0.0000000000
       473         4  PMPG      H12Y           -8.1170710654       -0.2975363519        1.6634177699  MEMB      4               0.0000000000
       474         4  PMPG      C313           -7.8212627071        1.1695862539       -0.1514512346  MEMB      4               0.0000000000
       475         4  PMPG      H13X           -7.4760065500        1.8779699204        0.6154070206  MEMB      4               0.0000000000
       476         4  PMPG      H13Y           -8.5856137194        1.5244880227       -0.8611955784  MEMB      4               0.0000000000
       477         4  PMPG      C314           -6.2282341887        1.0507190529       -0.7889450245  MEMB      4               0.0000000000
       478         4  PMPG      H14X           -6.1037345259        0.3020895633       -1.4766264014  MEMB      4               0.0000000000
       479         4  PMPG      H14Y           -5.3962008566        0.6932577130       -0.1697299632  MEMB      4               0.0000000000
       480         4  PMPG      C315           -5.5091341108        1.2537452977       -2.1355152638  MEMB      4               0.0000000000
       481         4  PMPG      H15X           -6.3205696707        1.2590611671       -2.9044905638  MEMB      4               0.0000000000
       482         4  PMPG      H15Y           -4.6948462595        0.6251287918       -2.5855490838  MEMB      4               0.0000000000
       483         4  PMPG      C316           -4.7806865774        2.3865593886       -1.5067924669  MEMB      4               0.0000000000
       484         4  PMPG      H16X           -4.9790928063        2.6853860145       -0.4479153432  MEMB      4               0.0000000000
       485         4  PMPG      H16Y           -5.6502362909        2.8581824751       -1.6184740159  MEMB      4               0.0000000000
       486         4  PMPG      H16Z           -4.4667199792        3.1896424520       -2.1207093165  MEMB      4               0.0000000000
       487         5  QMPE      N               3.0402939514        8.5596273003       20.1772817837  MEMB      5               0.0000000000
       488         5  QMPE      HN1             2.2994213934        9.0819984146       19.6829874946  MEMB      5               0.0000000000
       489         5  QMPE      HN2             2.7575865479        8.3819682658       21.1620062484  MEMB      5               0.0000000000
       490         5  QMPE      HN3             3.9167538147        9.1238778748       20.2115060587  MEMB      5               0.0000000000
       491         5  QMPE      C12             3.3083365234        7.2595129959       19.4613099251  MEMB      5               0.0000000000
       492         5  QMPE      H12A            2.3301958916        6.8742814297       19.1092238437  MEMB      5               0.0000000000
       493         5  QMPE      H12B            3.7327972928        6.5730888876       20.2156824478  MEMB      5               0.0000000000
       494         5  QMPE      C11             4.2455400022        7.4327534173       18.2488520173  MEMB      5               0.0000000000
       495         5  QMPE      H11A            3.7594873853        8.1461894755       17.5435053290  MEMB      5               0.0000000000
       496         5  QMPE      H11B            4.3426927028        6.4930944217       17.6541954171  MEMB      5               0.0000000000
       497         5  QMPE      P               6.7169395794        6.8893476549       18.9592616668  MEMB      5               0.0000000000
       498         5  QMPE      O13             6.2186207988        5.9081397604       19.9626020525  MEMB      5               0.0000000000
       499         5  QMPE      O14             7.9826879502        7.5742918819       19.2390129034  MEMB      5               0.0000000000
       500         5  QMPE      O11             6.8749762842        6.1927163966       17.5687810478  MEMB      5               0.0000000000
       501         5  QMPE      O12             5.5272512313        7.9272481227       18.6587058108  MEMB      5               0.0000000000
       502         5  QMPE      C1              7.6905008425        5.0583896072       17.2712085195  MEMB      5               0.0000000000
       503         5  QMPE      HA              7.5672078637        4.2424677094       18.0229208665  MEMB      5               0.0000000000
       504         5  QMPE      HB              8.7742246097        5.3293359823       17.2653701190  MEMB      5               0.0000000000
       505         5  QMPE      C2              7.2816653597        4.5952522711       15.8463909748  MEMB      5               0.0000000000
       506         5  QMPE      HS              7.9586982325        3.7761461807       15.4989261937  MEMB      5               0.0000000000
       507         5  QMPE      O21             7.3343140228        5.7494261929       14.9864613001  MEMB      5               0.0000000000
       508         5  QMPE      C21             8.2484913211        5.7968939864       14.0593892400  MEMB      5               0.0000000000
       509         5  QMPE      O22             9.0339405898        4.9342909603       13.7337059083  MEMB      5               0.0000000000
       510         5  QMPE      C22             8.1553515957        7.1298941010       13.3723741256  MEMB      5               0.0000000000
       511         5  QMPE      H2R             8.5881034546        7.9112611515       14.0272724223  MEMB      5               0.0000000000
       512         5  QMPE      H2S             7.0712899068        7.3411197180       13.2335218286  MEMB      5               0.0000000000
       513         5  QMPE      C3              5.7958800410        4.0461763923       15.8401469593  MEMB      5               0.0000000000
       514         5  QMPE      HX              5.2307062693        4.6212327166       16.5898004657  MEMB      5               0.0000000000
       515         5  QMPE      HY              5.7966866309        2.9836724863       16.2077274923  MEMB      5               0.0000000000
       516         5  QMPE      O31             5.0697673576        4.2315948913       14.5753707569  MEMB      5               0.0000000000
       517         5  QMPE      C31             5.6239081520        3.4293366030       13.6854206535  MEMB      5               0.0000000000
       518         5  QMPE      O32             6.4780045226        2.6374418466       13.9874206885  MEMB      5               0.0000000000
       519         5  QMPE      C32             5.1342561217        3.6572306439       12.2447212120  MEMB      5               0.0000000000
       520         5  QMPE      H2X             4.4092343632        2.8551739884       11.9945106251  MEMB      5               0.0000000000
       521         5  QMPE      H2Y             4.6040390510        4.6256245654       12.2209168250  MEMB      5               0.0000000000
       522         5  QMPE      C23             8.8236222892        7.1335603326       11.9947140744  MEMB      5               0.0000000000
       523         5  QMPE      H3R             8.5555200667        6.2371586769       11.3849693700  MEMB      5               0.0000000000
       524         5  QMPE      H3S             9.9385654961        7.1426173366       12.0563471089  MEMB      5               0.0000000000
       525         5  QMPE      C24             8.2115477756        8.3264400510       11.2800218758  MEMB      5               0.0000000000
       526         5  QMPE      H4R             8.7834614828        9.2351586211       11.5395007704  MEMB      5               0.0000000000
       527         5  QMPE      H4S             7.2124803928        8.5642994787       11.6422229061  MEMB      5               0.0000000000
       528         5  QMPE      C25             7.9273976743        8.0211319491        9.8263714024  MEMB      5               0.0000000000
       529         5  QMPE      H5R             7.4742377035        7.0944349685        9.4571909532  MEMB      5               0.0000000000
       530         5  QMPE      H5S             8.9346762484        7.6428885982        9.6682645692  MEMB      5               0.0000000000
       531         5  QMPE      C26             7.2590594311        9.1969544678        9.0733149970  MEMB      5               0.0000000000
       532         5  QMPE      H6R             7.3868809362        9.0529887187        7.9721524485  MEMB      5               0.0000000000
       533         5  QMPE      H6S             7.6552908504       10.2123183715        9.3228208624  MEMB      5               0.0000000000
       534         5  QMPE      C27             5.8247665110        9.3513083524        9.4591855815  MEMB      5               0.0000000000
       535         5  QMPE      H7R             5.3901038176       10.2275991893        8.9340279498  MEMB      5               0.0000000000
       536         5  QMPE      H7S             5.7930624963        9.5747101579       10.5505976245  MEMB      5               0.0000000000
       537         5  QMPE      C28             5.0498874519        8.0800681949        9.2238870633  MEMB      5               0.0000000000
       538         5  QMPE      H8R             5.3063894814        7.3635655848       10.0383959357  MEMB      5               0.0000000000
       539         5  QMPE      H8S             5.3101799882        7.6163632784        8.2476459941  MEMB      5               0.0000000000
       540         5  QMPE      C29             3.6140948534        8.5047419494        9.2938645435  MEMB      5               0.0000000000
       541         5  QMPE      H9R             3.2867089705        9.0997848852       10.1666977571  MEMB      5               0.0000000000
       542         5  QMPE      C217            2.5955453625        7.5032259070        8.7912121576  MEMB      5               0.0000000000
       543         5  QMPE      H17R            3.1064729089        6.5998925003        8.4922245635  MEMB      5               0.0000000000
       544         5  QMPE      H17S            1.6989629773        7.5725226916        9.3920748716  MEMB      5               0.0000000000
       545         5  QMPE      C210            2.8926444010        8.7722930517        8.0043645279  MEMB      5               0.0000000000
       546         5  QMPE      H10R            2.0852549496        9.5170818786        8.0834646413  MEMB      5               0.0000000000
       547         5  QMPE      C211            3.5122277783        8.5830228300        6.6131296408  MEMB      5               0.0000000000
       548         5  QMPE      H11R            4.1827144101        9.4516249746        6.4059227260  MEMB      5               0.0000000000
       549         5  QMPE      H11S            4.0928205480        7.6487658445        6.4892448986  MEMB      5               0.0000000000
       550         5  QMPE      C212            2.3324262740        8.6043702720        5.6258235483  MEMB      5               0.0000000000
       551         5  QMPE      H12R            1.9189352493        9.6436973614        5.7130113433  MEMB      5               0.0000000000
       552         5  QMPE      H12S            1.5271010753        7.9222548300        5.9583813807  MEMB      5               0.0000000000
       553         5  QMPE      C213            2.5721431470        8.1280297823        4.1664937721  MEMB      5               0.0000000000
       554         5  QMPE      H13R            1.6481681290        8.4395995671        3.6019666198  MEMB      5               0.0000000000
       555         5  QMPE      H13S            2.7250728600        7.0556150583        4.0325216175  MEMB      5               0.0000000000
       556         5  QMPE      C214            3.8943554496        8.4623907915        3.4933245551  MEMB      5               0.0000000000
       557         5  QMPE      H14R            3.9923782351        8.3022863419        2.3804544350  MEMB      5               0.0000000000
       558         5  QMPE      H14S            4.7783296574        8.7440368927        4.1325807988  MEMB      5               0.0000000000
       559         5  QMPE      C215            3.7370736331        9.7548710193        3.1538986784  MEMB      5               0.0000000000
       560         5  QMPE      H15R            3.3595155127       10.1270283013        4.1221837427  MEMB      5               0.0000000000
       561         5  QMPE      H15S            2.7142215792        9.8866153933        2.7274906947  MEMB      5               0.0000000000
       562         5  QMPE      C216            5.0184360344       10.2969178544        2.3637913673  MEMB      5               0.0000000000
       563         5  QMPE      H16R            5.0375220304       10.3429203698        1.2614433322  MEMB      5               0.0000000000
       564         5  QMPE      H16S            5.8144029648       10.7267144734        3.0074333576  MEMB      5               0.0000000000
       565         5  QMPE      H16T            4.8867387388       11.2516763066        1.8906578920  MEMB      5               0.0000000000
       566         5  QMPE      C33             6.3242426436        3.6172398185       11.2313624745  MEMB      5               0.0000000000
       567         5  QMPE      H3X             6.8054227680        2.6175943043       11.3025383257  MEMB      5               0.0000000000
       568         5  QMPE      H3Y             7.1083692581        4.3519267441       11.5214143654  MEMB      5               0.0000000000
       569         5  QMPE      C34             5.9512604724        3.8583134535        9.7499347244  MEMB      5               0.0000000000
       570         5  QMPE      H4X             5.2980037510        4.7568350220        9.6744678503  MEMB      5               0.0000000000
       571         5  QMPE      H4Y             5.3769709862        2.9815335763        9.3800591496  MEMB      5               0.0000000000
       572         5  QMPE      C35             7.1742507585        4.0396311684        8.8242353701  MEMB      5               0.0000000000
       573         5  QMPE      H5X             7.9148848075        3.2390473312        9.0484216678  MEMB      5               0.0000000000
       574         5  QMPE      H5Y             7.6564493914        5.0107926256        9.0579487514  MEMB      5               0.0000000000
       575         5  QMPE      C36             6.8844089869        3.9223661677        7.3121983095  MEMB      5               0.0000000000
       576         5  QMPE      H6X             6.3749021788        2.9522545468        7.1298349045  MEMB      5               0.0000000000
       577         5  QMPE      H6Y             7.8588201709        3.8895105583        6.7682233818  MEMB      5               0.0000000000
       578         5  QMPE      C37             6.0978567308        5.1011357197        6.7200343786  MEMB      5               0.0000000000
       579         5  QMPE      H7X             5.1409134124        5.2699196852        7.2620725330  MEMB      5               0.0000000000
       580         5  QMPE      H7Y             6.7368602381        5.9925859084        6.8842349253  MEMB      5               0.0000000000
       581         5  QMPE      C38             5.8063550101        4.9500792175        5.2151778403  MEMB      5               0.0000000000
       582         5  QMPE      H8X             5.3589023039        3.9417524518        5.0629208116  MEMB      5               0.0000000000
       583         5  QMPE      H8Y             5.0308981003        5.6913457538        4.9067709186  MEMB      5               0.0000000000
       584         5  QMPE      C39             7.0476789047        5.2031688119        4.3343106993  MEMB      5               0.0000000000
       585         5  QMPE      H9X             6.8405476844        4.8856087270        3.2886207133  MEMB      5               0.0000000000
       586         5  QMPE      H9Y             7.9253636499        4.6235523394        4.6971795761  MEMB      5               0.0000000000
       587         5  QMPE      C310            7.4543612482        6.6860337146        4.3319484544  MEMB      5               0.0000000000
       588         5  QMPE      H10X            7.6137560086        7.0064102561        5.3830071872  MEMB      5               0.0000000000
       589         5  QMPE      H10Y            6.6368773509        7.3043870046        3.9050220375  MEMB      5               0.0000000000
       590         5  QMPE      C311            8.7674855797        6.9720248157        3.6035660987  MEMB      5               0.0000000000
       591         5  QMPE      H11X            8.6648037147        6.7123815211        2.5243718113  MEMB      5               0.0000000000
       592         5  QMPE      H11Y            9.5417265158        6.2873607588        4.0298523590  MEMB      5               0.0000000000
       593         5  QMPE      C312            9.2924537695        8.4182347882        3.8484640182  MEMB      5               0.0000000000
       594         5  QMPE      H12X           10.3306674384        8.4001626451        3.4433148990  MEMB      5               0.0000000000
       595         5  QMPE      H12Y            9.3084767517        8.6435353430        4.9229851934  MEMB      5               0.0000000000
       596         5  QMPE      C313            8.4418432587        9.6140455343        3.3550189781  MEMB      5               0.0000000000
       597         5  QMPE      H13X            7.8972202000        9.0451017329        2.5905614667  MEMB      5               0.0000000000
       598         5  QMPE      H13Y            7.5278821765        9.8504494934        3.8941968163  MEMB      5               0.0000000000
       599         5  QMPE      C314            9.1561750550       11.0430584458        3.1897988719  MEMB      5               0.0000000000
       600         5  QMPE      H14X           10.2420991574       11.0092992725        3.0066246972  MEMB      5               0.0000000000
       601         5  QMPE      H14Y            9.2755633290       11.4448508756        4.2000259888  MEMB      5               0.0000000000
       602         5  QMPE      C315            8.6767454721       12.0966030045        2.1109961818  MEMB      5               0.0000000000
       603         5  QMPE      H15X            8.4314433058       11.7998799999        1.0794972089  MEMB      5               0.0000000000
       604         5  QMPE      H15Y            7.6567765403       12.2752992398        2.1810459305  MEMB      5               0.0000000000
       605         5  QMPE      H15Z            9.3724749550       12.9171988365        1.8438643543  MEMB      5               0.0000000000
       606         6  PMPE      N             -10.4275478651        3.7118683423       19.4696203525  MEMB      6               0.0000000000
       607         6  PMPE      HN1           -11.1164228412        3.4104464464       18.7414131638  MEMB      6               0.0000000000
       608         6  PMPE      HN2            -9.4847528592        3.8182376634       19.0317872893  MEMB      6               0.0000000000
       609         6  PMPE      HN3           -10.4180928524        2.9232159262       20.1617975531  MEMB      6               0.0000000000
       610         6  PMPE      C12           -10.7966391311        5.0020706639       20.1737546588  MEMB      6               0.0000000000
       611         6  PMPE      H12A          -10.3146216839        4.9770426069       21.1728517146  MEMB      6               0.0000000000
       612         6  PMPE      H12B          -11.8988453992        4.9942534551       20.3096669445  MEMB      6               0.0000000000
       613         6  PMPE      C11           -10.3344216100        6.2930000657       19.4390815216  MEMB      6               0.0000000000
       614         6  PMPE      H11A          -10.7235287443        7.1473897475       20.0484315237  MEMB      6               0.0000000000
       615         6  PMPE      H11B          -10.8187636278        6.3337991534       18.4369367318  MEMB      6               0.0000000000
       616         6  PMPE      P              -8.2151296733        7.6571225918       18.5982729536  MEMB      6               0.0000000000
       617         6  PMPE      O13            -6.7548377433        7.5756625279       18.8468518023  MEMB      6               0.0000000000
       618         6  PMPE      O14            -8.9557955753        8.8587381999       19.0314279943  MEMB      6               0.0000000000
       619         6  PMPE      O11            -8.5189333646        7.3275505003       17.0707782663  MEMB      6               0.0000000000
       620         6  PMPE      O12            -8.9069028840        6.3802988147       19.3255569098  MEMB      6               0.0000000000
       621         6  PMPE      C1             -7.9328814814        6.2426701820       16.3435232203  MEMB      6               0.0000000000
       622         6  PMPE      HA             -8.6777586535        5.9177812611       15.5818391267  MEMB      6               0.0000000000
       623         6  PMPE      HB             -7.7291674209        5.3556210522       16.9809022491  MEMB      6               0.0000000000
       624         6  PMPE      C2             -6.6343659010        6.6168319145       15.5488263608  MEMB      6               0.0000000000
       625         6  PMPE      HS             -5.8108876124        6.8083489819       16.2817308163  MEMB      6               0.0000000000
       626         6  PMPE      O21            -6.9291413134        7.7335169391       14.6882809440  MEMB      6               0.0000000000
       627         6  PMPE      C21            -6.7434727331        8.9548493384       15.1645920591  MEMB      6               0.0000000000
       628         6  PMPE      O22            -5.9460779366        9.2548624335       16.0265505299  MEMB      6               0.0000000000
       629         6  PMPE      C22            -7.5796489716        9.9559343847       14.3327288683  MEMB      6               0.0000000000
       630         6  PMPE      H2R            -7.0489078054       10.1914803306       13.3942619296  MEMB      6               0.0000000000
       631         6  PMPE      H2S            -7.6332374835       10.8842957810       14.9506081677  MEMB      6               0.0000000000
       632         6  PMPE      C3             -6.1640858679        5.4347707561       14.6403623645  MEMB      6               0.0000000000
       633         6  PMPE      HX             -5.8367235126        4.6003466485       15.2991392197  MEMB      6               0.0000000000
       634         6  PMPE      HY             -5.2770295075        5.7941691476       14.0589321894  MEMB      6               0.0000000000
       635         6  PMPE      O31            -7.2376319285        5.0000220801       13.7686673981  MEMB      6               0.0000000000
       636         6  PMPE      C31            -6.8287518148        4.4211418164       12.6473557858  MEMB      6               0.0000000000
       637         6  PMPE      O32            -5.6929992936        4.0337204491       12.4389582302  MEMB      6               0.0000000000
       638         6  PMPE      C32            -7.9970678918        4.3338540663       11.6545925617  MEMB      6               0.0000000000
       639         6  PMPE      H2X            -8.5236217304        5.3071452427       11.6410171096  MEMB      6               0.0000000000
       640         6  PMPE      H2Y            -8.7037368907        3.5732494067       12.0502135641  MEMB      6               0.0000000000
       641         6  PMPE      C23            -9.0477799353        9.5509168670       14.0178160089  MEMB      6               0.0000000000
       642         6  PMPE      H3R            -9.6002115912       10.4968330109       13.7800801645  MEMB      6               0.0000000000
       643         6  PMPE      H3S            -9.5004094123        9.0897352105       14.9229728733  MEMB      6               0.0000000000
       644         6  PMPE      C24            -9.2962881407        8.5802597955       12.8567408224  MEMB      6               0.0000000000
       645         6  PMPE      H4R            -8.7341713609        7.6322635466       12.9712023343  MEMB      6               0.0000000000
       646         6  PMPE      H4S            -9.0044437626        9.0571884635       11.8951558346  MEMB      6               0.0000000000
       647         6  PMPE      C25           -10.7716961079        8.1835448246       12.8105512176  MEMB      6               0.0000000000
       648         6  PMPE      H5R           -11.3140081972        9.1266520470       12.6256340267  MEMB      6               0.0000000000
       649         6  PMPE      H5S           -11.1140099061        7.8017855947       13.8082634374  MEMB      6               0.0000000000
       650         6  PMPE      C26           -11.1055413843        7.1194460011       11.7437046449  MEMB      6               0.0000000000
       651         6  PMPE      H6R           -12.1859467435        6.9013749473       11.8481025022  MEMB      6               0.0000000000
       652         6  PMPE      H6S           -10.6519621655        6.1582016428       12.0115227007  MEMB      6               0.0000000000
       653         6  PMPE      C27           -10.6518705862        7.3629394260       10.2674441175  MEMB      6               0.0000000000
       654         6  PMPE      H7R           -10.3768412589        6.4235668104        9.7916613152  MEMB      6               0.0000000000
       655         6  PMPE      H7S            -9.8108850715        8.1037987739       10.2146156805  MEMB      6               0.0000000000
       656         6  PMPE      C28           -11.7695799479        7.9002087361        9.3910077123  MEMB      6               0.0000000000
       657         6  PMPE      H8R           -11.7110509485        8.5767472475       10.2172554465  MEMB      6               0.0000000000
       658         6  PMPE      H8S           -12.8089897466        7.5237945166        9.4323373860  MEMB      6               0.0000000000
       659         6  PMPE      C29           -11.4510527296        8.5555192850        8.0516623885  MEMB      6               0.0000000000
       660         6  PMPE      H9R           -10.5584333060        9.1995267037        7.9544516398  MEMB      6               0.0000000000
       661         6  PMPE      C217          -12.5497882553        8.6828955374        6.9827132216  MEMB      6               0.0000000000
       662         6  PMPE      H17R          -12.3603641538        9.4113724602        6.2074117381  MEMB      6               0.0000000000
       663         6  PMPE      H17S          -13.5439040115        8.3443371186        7.2328735508  MEMB      6               0.0000000000
       664         6  PMPE      C210          -11.5563224318        7.5279851989        6.9620282775  MEMB      6               0.0000000000
       665         6  PMPE      H10R          -10.7764418131        7.5591100751        6.2042830590  MEMB      6               0.0000000000
       666         6  PMPE      C211          -12.1131211613        6.1649247740        7.3478393073  MEMB      6               0.0000000000
       667         6  PMPE      H11R          -13.1921851562        6.2497268404        7.6135265072  MEMB      6               0.0000000000
       668         6  PMPE      H11S          -11.5867687711        5.7485771776        8.2306769458  MEMB      6               0.0000000000
       669         6  PMPE      C212          -11.9274624408        5.1649148949        6.2043163349  MEMB      6               0.0000000000
       670         6  PMPE      H12R          -12.4653651878        5.5491521500        5.3066291429  MEMB      6               0.0000000000
       671         6  PMPE      H12S          -12.4382276944        4.2349858062        6.5378334002  MEMB      6               0.0000000000
       672         6  PMPE      C213          -10.4654516077        4.8306449300        5.8194583284  MEMB      6               0.0000000000
       673         6  PMPE      H13R           -9.9568032167        4.2797103456        6.6402880536  MEMB      6               0.0000000000
       674         6  PMPE      H13S           -9.8739916560        5.7530052663        5.6526142874  MEMB      6               0.0000000000
       675         6  PMPE      C214          -10.4561793353        3.9984697371        4.5289855698  MEMB      6               0.0000000000
       676         6  PMPE      H14R          -11.1722002185        4.4603808092        3.8149492795  MEMB      6               0.0000000000
       677         6  PMPE      H14S          -10.8938541337        3.0161690907        4.7952198934  MEMB      6               0.0000000000
       678         6  PMPE      C215           -9.1222091054        3.9004943616        3.7629966831  MEMB      6               0.0000000000
       679         6  PMPE      H15R           -8.4783847289        3.1041582287        4.2199532742  MEMB      6               0.0000000000
       680         6  PMPE      H15S           -8.5657092612        4.8498652260        3.7792040920  MEMB      6               0.0000000000
       681         6  PMPE      C216           -9.3547095352        3.6234698136        2.2833580003  MEMB      6               0.0000000000
       682         6  PMPE      H16R          -10.1837074012        4.0856532668        1.7399526071  MEMB      6               0.0000000000
       683         6  PMPE      H16S           -8.4275320156        3.5048488881        1.6749055736  MEMB      6               0.0000000000
       684         6  PMPE      H16T           -9.8974879852        2.7114806328        2.3565124622  MEMB      6               0.0000000000
       685         6  PMPE      C33            -7.5731260384        3.9699865552       10.2022083750  MEMB      6               0.0000000000
       686         6  PMPE      H3X            -8.4858956363        3.5929655369        9.6832511127  MEMB      6               0.0000000000
       687         6  PMPE      H3Y            -6.8337018108        3.1380576341       10.2031748216  MEMB      6               0.0000000000
       688         6  PMPE      C34            -7.0191789326        5.1635491982        9.3832433801  MEMB      6               0.0000000000
       689         6  PMPE      H4X            -7.7370236999        6.0113154112        9.4466257873  MEMB      6               0.0000000000
       690         6  PMPE      H4Y            -6.9117711490        4.8453198939        8.3203824393  MEMB      6               0.0000000000
       691         6  PMPE      C35            -5.6166638402        5.5949456584        9.8454176383  MEMB      6               0.0000000000
       692         6  PMPE      H5X            -5.0513156400        4.6382795600        9.9221492595  MEMB      6               0.0000000000
       693         6  PMPE      H5Y            -5.6800696478        6.0790968962       10.8425893263  MEMB      6               0.0000000000
       694         6  PMPE      C36            -4.8113013771        6.5588451632        8.9601175686  MEMB      6               0.0000000000
       695         6  PMPE      H6X            -4.9132775380        6.2666187969        7.8965801159  MEMB      6               0.0000000000
       696         6  PMPE      H6Y            -3.7312271111        6.4423780564        9.2236060992  MEMB      6               0.0000000000
       697         6  PMPE      C37            -5.2072573448        8.0232851656        9.2113813815  MEMB      6               0.0000000000
       698         6  PMPE      H7X            -4.7703806204        8.3600742283       10.1801141411  MEMB      6               0.0000000000
       699         6  PMPE      H7Y            -6.3029147373        8.0618937444        9.3735099929  MEMB      6               0.0000000000
       700         6  PMPE      C38            -4.8798828084        8.9688810886        8.0445025531  MEMB      6               0.0000000000
       701         6  PMPE      H8X            -3.8238859803        8.8504061945        7.7235938720  MEMB      6               0.0000000000
       702         6  PMPE      H8Y            -4.9968500375       10.0251968323        8.3811472512  MEMB      6               0.0000000000
       703         6  PMPE      C39            -5.6752756438        8.6719286277        6.7640829070  MEMB      6               0.0000000000
       704         6  PMPE      H9X            -5.4853286926        7.6207743800        6.4572263327  MEMB      6               0.0000000000
       705         6  PMPE      H9Y            -5.2687385787        9.3078792915        5.9468369256  MEMB      6               0.0000000000
       706         6  PMPE      C310           -7.1911625257        8.8474414001        6.8817025093  MEMB      6               0.0000000000
       707         6  PMPE      H10X           -7.4198246876        9.9092116679        7.1153964534  MEMB      6               0.0000000000
       708         6  PMPE      H10Y           -7.5957924739        8.2110988041        7.7025771634  MEMB      6               0.0000000000
       709         6  PMPE      C311           -7.9177344083        8.3629592820        5.6228423247  MEMB      6               0.0000000000
       710         6  PMPE      H11X           -9.0079462233        8.3836620941        5.8179156498  MEMB      6               0.0000000000
       711         6  PMPE      H11Y           -7.6105414222        7.3084829141        5.4432055240  MEMB      6               0.0000000000
       712         6  PMPE      C312           -7.6506703609        9.2097013529        4.3797801962  MEMB      6               0.0000000000
       713         6  PMPE      H12X           -6.6150246678        9.0365515534        4.0249708564  MEMB      6               0.0000000000
       714         6  PMPE      H12Y           -7.7129465223       10.2763332071        4.7075843878  MEMB      6               0.0000000000
       715         6  PMPE      C313           -8.6891747970        8.9898378275        3.2562245309  MEMB      6               0.0000000000
       716         6  PMPE      H13X           -8.6107665134        9.8515237773        2.5619344423  MEMB      6               0.0000000000
       717         6  PMPE      H13Y           -9.7027285252        9.0133172762        3.7107885652  MEMB      6               0.0000000000
       718         6  PMPE      C314           -8.5840019504        7.7016663629        2.4131384887  MEMB      6               0.0000000000
       719         6  PMPE      H14X           -8.5876756883        6.8189896084        3.0823192371  MEMB      6               0.0000000000
       720         6  PMPE      H14Y           -7.6261292618        7.6995124638        1.8459737528  MEMB      6               0.0000000000
       721         6  PMPE      C315           -9.7179356731        7.5667479751        1.3769509293  MEMB      6               0.0000000000
       722         6  PMPE      H15X           -9.5062145639        6.7161431570        0.6970580542  MEMB      6               0.0000000000
       723         6  PMPE      H15Y           -9.7323683277        8.4865501446        0.7491006098  MEMB      6               0.0000000000
       724         6  PMPE      C316          -11.1234785812        7.3412134518        1.9266715382  MEMB      6               0.0000000000
       725         6  PMPE      H16X          -11.2080320113        6.3981469200        2.5074063987  MEMB      6               0.0000000000
       726         6  PMPE      H16Y          -11.7904415901        7.2747893653        1.0596649218  MEMB      6               0.0000000000
       727         6  PMPE      H16Z          -11.4673526201        8.1954656935        2.5386864400  MEMB      6               0.0000000000
       728         7  PMPG      C13            -1.1826069289       11.0319636171       21.9611111687  MEMB      7               0.0000000000
       729         7  PMPG      H13A           -1.0925654114       11.7432249778       22.8140910102  MEMB      7               0.0000000000
       730         7  PMPG      H13B           -1.7350791993       10.1320405463       22.3068974348  MEMB      7               0.0000000000
       731         7  PMPG      OC3             0.1272319806       10.6745134002       21.5062039284  MEMB      7               0.0000000000
       732         7  PMPG      HO3             0.5479630985       11.5259733015       21.3730984190  MEMB      7               0.0000000000
       733         7  PMPG      C12            -1.9825727680       11.7554606337       20.8531202288  MEMB      7               0.0000000000
       734         7  PMPG      H12A           -1.5536116316       12.7719390250       20.7330784427  MEMB      7               0.0000000000
       735         7  PMPG      OC2            -3.3220143032       11.9049183392       21.2749281597  MEMB      7               0.0000000000
       736         7  PMPG      HO2            -3.8198164494       12.1717438733       20.4893491739  MEMB      7               0.0000000000
       737         7  PMPG      C11            -1.9182975090       11.0288515058       19.4895276924  MEMB      7               0.0000000000
       738         7  PMPG      H11A           -2.4682083799       10.0664139734       19.5525526048  MEMB      7               0.0000000000
       739         7  PMPG      H11B           -0.8492166030       10.8135554565       19.2872122519  MEMB      7               0.0000000000
       740         7  PMPG      P              -2.4008133016       11.1664600460       16.9639341174  MEMB      7               0.0000000000
       741         7  PMPG      O13            -3.6939060390       11.3093707929       16.2820203564  MEMB      7               0.0000000000
       742         7  PMPG      O14            -1.7345095419        9.8419280360       17.0199301748  MEMB      7               0.0000000000
       743         7  PMPG      O11            -1.4369868675       12.1620195086       16.2603947754  MEMB      7               0.0000000000
       744         7  PMPG      O12            -2.4268837856       11.8250126704       18.4261092492  MEMB      7               0.0000000000
       745         7  PMPG      C1             -0.5367129317       13.0602206330       16.8698595987  MEMB      7               0.0000000000
       746         7  PMPG      HA             -0.1577123274       12.6821816609       17.8402410428  MEMB      7               0.0000000000
       747         7  PMPG      HB             -1.0796555188       14.0188707360       17.0301317745  MEMB      7               0.0000000000
       748         7  PMPG      C2              0.6403306270       13.2819692556       15.9042553468  MEMB      7               0.0000000000
       749         7  PMPG      HS              1.0851399594       14.2839882487       16.1431738427  MEMB      7               0.0000000000
       750         7  PMPG      O21             0.0716645347       13.2167075534       14.5790529549  MEMB      7               0.0000000000
       751         7  PMPG      C21             0.8178902090       13.7720705456       13.6841383655  MEMB      7               0.0000000000
       752         7  PMPG      O22             1.8394665261       14.3667224449       13.9708976897  MEMB      7               0.0000000000
       753         7  PMPG      C22             0.1162924061       13.6288905223       12.3099402811  MEMB      7               0.0000000000
       754         7  PMPG      H2R            -0.9407899814       13.8836764254       12.4968726109  MEMB      7               0.0000000000
       755         7  PMPG      H2S             0.2061249649       12.5707069211       11.9981397233  MEMB      7               0.0000000000
       756         7  PMPG      C3              1.7702589970       12.2103253411       16.0766271338  MEMB      7               0.0000000000
       757         7  PMPG      HX              2.1291033038       12.2648200885       17.1206385193  MEMB      7               0.0000000000
       758         7  PMPG      HY              2.6431185350       12.4709691720       15.4288843522  MEMB      7               0.0000000000
       759         7  PMPG      O31             1.2787479826       10.8695360217       15.8918459823  MEMB      7               0.0000000000
       760         7  PMPG      C31             1.4823760174       10.3185511018       14.6994321432  MEMB      7               0.0000000000
       761         7  PMPG      O32             2.2219744912       10.7766113316       13.8412384861  MEMB      7               0.0000000000
       762         7  PMPG      C32             0.7539249343        8.9700286417       14.6058894802  MEMB      7               0.0000000000
       763         7  PMPG      H2X            -0.0877649723        8.9378946618       15.3270563196  MEMB      7               0.0000000000
       764         7  PMPG      H2Y             1.4866930593        8.1660341904       14.8381693648  MEMB      7               0.0000000000
       765         7  PMPG      C23             0.5478897114       14.4901139876       11.1060689407  MEMB      7               0.0000000000
       766         7  PMPG      H3R             0.8396863479       15.5071055096       11.3979390585  MEMB      7               0.0000000000
       767         7  PMPG      H3S            -0.2153155191       14.6309786043       10.3285585736  MEMB      7               0.0000000000
       768         7  PMPG      C24             1.7146088774       13.8782119601       10.3896853492  MEMB      7               0.0000000000
       769         7  PMPG      H4R             2.3058839685       13.7114327567       11.2670207690  MEMB      7               0.0000000000
       770         7  PMPG      H4S             2.1141161451       14.6539164358        9.7081804958  MEMB      7               0.0000000000
       771         7  PMPG      C25             1.7120384447       12.5009793100        9.7793308580  MEMB      7               0.0000000000
       772         7  PMPG      H5R             0.7901823368       12.5106533783        9.1979428853  MEMB      7               0.0000000000
       773         7  PMPG      H5S             1.7523908536       11.7166617039       10.5671370463  MEMB      7               0.0000000000
       774         7  PMPG      C26             2.9038618237       12.2040291154        8.8994334574  MEMB      7               0.0000000000
       775         7  PMPG      H6R             2.9436928137       11.1971082258        8.4837810293  MEMB      7               0.0000000000
       776         7  PMPG      H6S             3.8035155767       12.1895953077        9.5332012120  MEMB      7               0.0000000000
       777         7  PMPG      C27             2.9707233660       13.0717973698        7.6825091602  MEMB      7               0.0000000000
       778         7  PMPG      H7R             2.9204606496       14.1668951338        7.9278903913  MEMB      7               0.0000000000
       779         7  PMPG      H7S             2.1802351662       12.9912106291        6.9413629434  MEMB      7               0.0000000000
       780         7  PMPG      C28             4.2632484863       12.7705847831        7.0287873800  MEMB      7               0.0000000000
       781         7  PMPG      H8R             4.8438932054       11.8519217178        6.7837908263  MEMB      7               0.0000000000
       782         7  PMPG      H8S             4.8785713508       12.7567322201        7.8873501032  MEMB      7               0.0000000000
       783         7  PMPG      C29             4.1808729178       13.8590912709        6.0504127308  MEMB      7               0.0000000000
       784         7  PMPG      H9R             4.2074666712       15.0115913791        6.0581405639  MEMB      7               0.0000000000
       785         7  PMPG      C217            4.9071744890       13.4274027959        4.9847209721  MEMB      7               0.0000000000
       786         7  PMPG      H17R            5.3489055351       14.4011987657        4.8453708949  MEMB      7               0.0000000000
       787         7  PMPG      H17S            5.4510881220       12.4970815137        4.6953594322  MEMB      7               0.0000000000
       788         7  PMPG      C210            3.5222241666       13.5624221044        4.8860216818  MEMB      7               0.0000000000
       789         7  PMPG      H10R            3.1760142417       14.4649986878        4.3521381095  MEMB      7               0.0000000000
       790         7  PMPG      C211            3.2729916815       12.1988575971        4.7295057817  MEMB      7               0.0000000000
       791         7  PMPG      H11R            4.0889026336       11.4471759490        5.0655856137  MEMB      7               0.0000000000
       792         7  PMPG      H11S            2.3303496287       12.0356822280        5.1630682849  MEMB      7               0.0000000000
       793         7  PMPG      C212            3.1469410371       12.2989010687        3.3321626365  MEMB      7               0.0000000000
       794         7  PMPG      H12R            3.0504903143       11.6110183311        2.5510534762  MEMB      7               0.0000000000
       795         7  PMPG      H12S            4.2180933739       12.3455867945        3.0861108692  MEMB      7               0.0000000000
       796         7  PMPG      C213            1.8611042559       12.6925213283        2.6881228160  MEMB      7               0.0000000000
       797         7  PMPG      H13R            1.9146353764       12.6644870496        1.5896678911  MEMB      7               0.0000000000
       798         7  PMPG      H13S            1.7490575613       13.7271028901        2.9137699820  MEMB      7               0.0000000000
       799         7  PMPG      C214            0.6869082832       11.7688600673        2.5349658025  MEMB      7               0.0000000000
       800         7  PMPG      H14R            0.1945195264       12.3277181498        3.3141971473  MEMB      7               0.0000000000
       801         7  PMPG      H14S            0.8062685460       10.6896350070        2.7511981541  MEMB      7               0.0000000000
       802         7  PMPG      C215           -0.0633443125       11.9675858645        1.2252396332  MEMB      7               0.0000000000
       803         7  PMPG      H15R            0.4235763835       11.6475652636        0.3192718096  MEMB      7               0.0000000000
       804         7  PMPG      H15S           -0.2903653471       13.0371103748        1.0603687739  MEMB      7               0.0000000000
       805         7  PMPG      C216           -1.2128546461       11.0783876261        1.0476123857  MEMB      7               0.0000000000
       806         7  PMPG      H16R           -1.9581434949       11.3939901260        1.7877542952  MEMB      7               0.0000000000
       807         7  PMPG      H16S           -0.9054858784       10.0137039910        1.1170577610  MEMB      7               0.0000000000
       808         7  PMPG      H16T           -1.5002101548       11.2672102906        0.0103713114  MEMB      7               0.0000000000
       809         7  PMPG      C33             0.2519329491        8.7046298836       13.1769538844  MEMB      7               0.0000000000
       810         7  PMPG      H3X            -0.2061232080        7.6921171672       13.1016023804  MEMB      7               0.0000000000
       811         7  PMPG      H3Y             1.1461314381        8.7119546067       12.5150790257  MEMB      7               0.0000000000
       812         7  PMPG      C34            -0.7741881300        9.7010740701       12.6426664575  MEMB      7               0.0000000000
       813         7  PMPG      H4X            -0.6653291462       10.7303436246       13.0530472885  MEMB      7               0.0000000000
       814         7  PMPG      H4Y            -1.8003640647        9.3557584376       12.9133120549  MEMB      7               0.0000000000
       815         7  PMPG      C35            -0.6418145841        9.7756356826       11.1233134662  MEMB      7               0.0000000000
       816         7  PMPG      H5X            -0.4019001014        8.7578794309       10.7435716437  MEMB      7               0.0000000000
       817         7  PMPG      H5Y             0.2092119420       10.4379853403       10.8656971696  MEMB      7               0.0000000000
       818         7  PMPG      C36            -1.9517931362       10.2812125539       10.5421575191  MEMB      7               0.0000000000
       819         7  PMPG      H6X            -2.1359142933       11.3029266061       10.9419889506  MEMB      7               0.0000000000
       820         7  PMPG      H6Y            -2.7549870819        9.6290211145       10.9628344210  MEMB      7               0.0000000000
       821         7  PMPG      C37            -2.0609962835       10.1788316355        9.0162186352  MEMB      7               0.0000000000
       822         7  PMPG      H7X            -3.0419600163       10.6069607737        8.7274875627  MEMB      7               0.0000000000
       823         7  PMPG      H7Y            -2.0930070344        9.0985859185        8.7497029706  MEMB      7               0.0000000000
       824         7  PMPG      C38            -0.9586642676       10.8285526369        8.1637259352  MEMB      7               0.0000000000
       825         7  PMPG      H8X            -0.8489355500       10.2337122690        7.2218368147  MEMB      7               0.0000000000
       826         7  PMPG      H8Y             0.0122096203       10.8089001005        8.6651855770  MEMB      7               0.0000000000
       827         7  PMPG      C39            -1.3190413916       12.2415322568        7.7465028491  MEMB      7               0.0000000000
       828         7  PMPG      H9X            -0.4740647233       12.8090807260        7.2890598103  MEMB      7               0.0000000000
       829         7  PMPG      H9Y            -1.6403734970       12.8357489748        8.6310964789  MEMB      7               0.0000000000
       830         7  PMPG      C310           -2.3628525997       12.0221856654        6.6820004997  MEMB      7               0.0000000000
       831         7  PMPG      H10X           -3.1501235995       11.2769661795        6.8986864988  MEMB      7               0.0000000000
       832         7  PMPG      H10Y           -1.8934418523       11.7645532272        5.7246237880  MEMB      7               0.0000000000
       833         7  PMPG      C311           -3.1936867699       13.1522789036        6.4128580854  MEMB      7               0.0000000000
       834         7  PMPG      H11X           -2.5870465919       14.0375961749        6.7921176235  MEMB      7               0.0000000000
       835         7  PMPG      H11Y           -4.0840971406       12.9546991508        7.0472762392  MEMB      7               0.0000000000
       836         7  PMPG      C312           -3.5157881616       13.0452966845        4.9369553654  MEMB      7               0.0000000000
       837         7  PMPG      H12X           -4.5382422997       13.5310284152        4.5452957861  MEMB      7               0.0000000000
       838         7  PMPG      H12Y           -4.4289321218       12.4703748272        4.7605183940  MEMB      7               0.0000000000
       839         7  PMPG      C313           -1.9993155090       13.5395933507        4.2527398572  MEMB      7               0.0000000000
       840         7  PMPG      H13X           -2.0106510911       13.7650609080        3.1856333378  MEMB      7               0.0000000000
       841         7  PMPG      H13Y           -1.4052141954       12.6696476680        4.1164772759  MEMB      7               0.0000000000
       842         7  PMPG      C314           -0.9885811850       14.7909464384        4.7705455531  MEMB      7               0.0000000000
       843         7  PMPG      H14X           -0.5266267377       14.7450362801        5.7670393681  MEMB      7               0.0000000000
       844         7  PMPG      H14Y           -1.3924856886       15.7840084436        5.1177030533  MEMB      7               0.0000000000
       845         7  PMPG      C315           -0.1554662510       15.5724464900        3.7726663497  MEMB      7               0.0000000000
       846         7  PMPG      H15X            0.6247123366       15.1224720880        3.1848219700  MEMB      7               0.0000000000
       847         7  PMPG      H15Y            0.3955371755       16.0469682575        4.5810503069  MEMB      7               0.0000000000
       848         7  PMPG      C316           -0.7703855710       16.5862774358        2.8758392411  MEMB      7               0.0000000000
       849         7  PMPG      H16X           -1.1418077174       16.2104667474        1.9139865066  MEMB      7               0.0000000000
       850         7  PMPG      H16Y            0.0148869275       17.2234536917        2.7747492202  MEMB      7               0.0000000000
       851         7  PMPG      H16Z           -1.4336881123       17.4333223630        3.0920888925  MEMB      7               0.0000000000
       852         8  PYPG      C13             6.5455801115       -7.5164541085       20.4731412167  MEMB      8               0.0000000000
       853         8  PYPG      H13A            7.2285205154       -8.1848220283       21.0274555796  MEMB      8               0.0000000000
       854         8  PYPG      H13B            7.1382405577       -6.8834497066       19.7816234844  MEMB      8               0.0000000000
       855         8  PYPG      OC3             5.9029946858       -6.6877925367       21.4193615246  MEMB      8               0.0000000000
       856         8  PYPG      HO3             5.9971388468       -5.7691864397       21.1517281900  MEMB      8               0.0000000000
       857         8  PYPG      C12             5.5315284244       -8.3562414560       19.6624688210  MEMB      8               0.0000000000
       858         8  PYPG      H12A            4.7119470893       -7.6956061166       19.3297555616  MEMB      8               0.0000000000
       859         8  PYPG      OC2             4.9197684567       -9.3554917714       20.4712829597  MEMB      8               0.0000000000
       860         8  PYPG      HO2             4.5491423650      -10.0057026496       19.8795374137  MEMB      8               0.0000000000
       861         8  PYPG      C11             6.2536865781       -8.9752735876       18.4539108147  MEMB      8               0.0000000000
       862         8  PYPG      H11A            6.8293615444       -8.1673780301       17.9448181221  MEMB      8               0.0000000000
       863         8  PYPG      H11B            5.5427600688       -9.3888261065       17.6946629227  MEMB      8               0.0000000000
       864         8  PYPG      P               8.0477707310      -10.7300965955       17.9911696321  MEMB      8               0.0000000000
       865         8  PYPG      O13             7.0858541834      -11.5513292858       17.2601627699  MEMB      8               0.0000000000
       866         8  PYPG      O14             9.1808004261      -11.4097811487       18.6723950671  MEMB      8               0.0000000000
       867         8  PYPG      O11             8.5963238454       -9.6384922133       17.0229977581  MEMB      8               0.0000000000
       868         8  PYPG      O12             7.1656160481       -9.9403422582       18.9750739846  MEMB      8               0.0000000000
       869         8  PYPG      C1              9.9728760399       -9.3946117007       16.7899119502  MEMB      8               0.0000000000
       870         8  PYPG      HA             10.4597083923      -10.2785142614       16.3247437864  MEMB      8               0.0000000000
       871         8  PYPG      HB             10.4984260122       -9.0937326709       17.7155473732  MEMB      8               0.0000000000
       872         8  PYPG      C2             10.0622174159       -8.2571997908       15.7960422418  MEMB      8               0.0000000000
       873         8  PYPG      HS              9.7610672591       -7.3556811628       16.4255048245  MEMB      8               0.0000000000
       874         8  PYPG      O21             9.1925970455       -8.6784347317       14.6974505104  MEMB      8               0.0000000000
       875         8  PYPG      C21             8.7237034756       -7.5897753614       14.1902369777  MEMB      8               0.0000000000
       876         8  PYPG      O22             8.9682894166       -6.5344104969       14.7238035979  MEMB      8               0.0000000000
       877         8  PYPG      C22             7.8783547940       -7.8189416859       12.9365054112  MEMB      8               0.0000000000
       878         8  PYPG      H2R             6.9481715647       -7.2289763836       13.0111759840  MEMB      8               0.0000000000
       879         8  PYPG      H2S             7.6285274484       -8.8919274748       12.9746545863  MEMB      8               0.0000000000
       880         8  PYPG      C3             11.4870633857       -7.9909795139       15.2558421024  MEMB      8               0.0000000000
       881         8  PYPG      HX             12.1309347201       -7.8814618063       16.1304570707  MEMB      8               0.0000000000
       882         8  PYPG      HY             11.5654259233       -7.0660324392       14.6291366809  MEMB      8               0.0000000000
       883         8  PYPG      O31            11.9677500473       -9.1660935209       14.6337240427  MEMB      8               0.0000000000
       884         8  PYPG      C31            11.7753828878       -9.2384882201       13.3410034661  MEMB      8               0.0000000000
       885         8  PYPG      O32            11.6322571987       -8.3104462758       12.5751767464  MEMB      8               0.0000000000
       886         8  PYPG      C32            11.6032739886      -10.6804727442       13.0179729093  MEMB      8               0.0000000000
       887         8  PYPG      H2X            12.3667222692      -11.3017361853       13.5360097158  MEMB      8               0.0000000000
       888         8  PYPG      H2Y            10.5694079693      -10.9706414022       13.2760472358  MEMB      8               0.0000000000
       889         8  PYPG      C23             8.5639667281       -7.4573727506       11.5968063073  MEMB      8               0.0000000000
       890         8  PYPG      H3R             9.4725551397       -8.0778472987       11.4565531706  MEMB      8               0.0000000000
       891         8  PYPG      H3S             8.8541975166       -6.3848922947       11.5971430240  MEMB      8               0.0000000000
       892         8  PYPG      C24             7.6914500226       -7.5605698371       10.3444537050  MEMB      8               0.0000000000
       893         8  PYPG      H4R             8.3431506981       -7.2342986388        9.4973555664  MEMB      8               0.0000000000
       894         8  PYPG      H4S             6.8670615308       -6.8188914584       10.4219764527  MEMB      8               0.0000000000
       895         8  PYPG      C25             7.1752164322       -8.9617211788        9.9955454853  MEMB      8               0.0000000000
       896         8  PYPG      H5R             6.3883674746       -8.8033389556        9.2231311423  MEMB      8               0.0000000000
       897         8  PYPG      H5S             6.6808302399       -9.4667273507       10.8530201356  MEMB      8               0.0000000000
       898         8  PYPG      C26             8.3165011751       -9.7827192073        9.3859270909  MEMB      8               0.0000000000
       899         8  PYPG      H6R             9.1365064394       -9.9394535001       10.1207891554  MEMB      8               0.0000000000
       900         8  PYPG      H6S             8.7625509642       -9.1743978022        8.5679674324  MEMB      8               0.0000000000
       901         8  PYPG      C27             7.9334697670      -11.1097684307        8.7260484775  MEMB      8               0.0000000000
       902         8  PYPG      H7R             7.0790755136      -11.0341241865        8.0353286870  MEMB      8               0.0000000000
       903         8  PYPG      H7S             7.7228239598      -11.8603434267        9.5296993924  MEMB      8               0.0000000000
       904         8  PYPG      C28             9.1293257145      -11.5522565200        7.8879684615  MEMB      8               0.0000000000
       905         8  PYPG      H8R             9.7090172060      -11.7706239871        8.8060964285  MEMB      8               0.0000000000
       906         8  PYPG      H8S             9.6301162975      -10.7295044967        7.3469362317  MEMB      8               0.0000000000
       907         8  PYPG      C29             8.9375133428      -12.6471322179        6.8673553416  MEMB      8               0.0000000000
       908         8  PYPG      H9R             7.8757637308      -12.8728097940        6.7133794562  MEMB      8               0.0000000000
       909         8  PYPG      C210            9.7995220975      -13.5610268910        6.3499144877  MEMB      8               0.0000000000
       910         8  PYPG      H10R            9.4789024743      -14.4709326686        5.9491707066  MEMB      8               0.0000000000
       911         8  PYPG      C211           11.1935978199      -13.9640704064        6.4675976389  MEMB      8               0.0000000000
       912         8  PYPG      H11R           11.5671146494      -15.0005890986        6.5322209310  MEMB      8               0.0000000000
       913         8  PYPG      H11S           11.2399636928      -14.0212168948        7.5140929270  MEMB      8               0.0000000000
       914         8  PYPG      C212           11.8522026228      -13.0745398250        5.4832389235  MEMB      8               0.0000000000
       915         8  PYPG      H12R           12.9535014280      -13.2878819568        5.4473593086  MEMB      8               0.0000000000
       916         8  PYPG      H12S           11.5847570271      -11.9958559864        5.6452003074  MEMB      8               0.0000000000
       917         8  PYPG      C213           11.4889110590      -13.1931234807        4.1129229592  MEMB      8               0.0000000000
       918         8  PYPG      H13R           10.4124117436      -12.9164229813        4.0756621206  MEMB      8               0.0000000000
       919         8  PYPG      H13S           11.7164275503      -14.2609071838        3.9185849599  MEMB      8               0.0000000000
       920         8  PYPG      C214           12.3732828483      -12.1836164444        3.4164035098  MEMB      8               0.0000000000
       921         8  PYPG      H14R           12.3253222436      -11.1543779281        3.8490039565  MEMB      8               0.0000000000
       922         8  PYPG      H14S           13.4213704388      -12.5387526976        3.3675772065  MEMB      8               0.0000000000
       923         8  PYPG      C215           11.8629982809      -12.0363180809        2.0692061284  MEMB      8               0.0000000000
       924         8  PYPG      H15R           12.5062310265      -11.4195102732        1.4288814877  MEMB      8               0.0000000000
       925         8  PYPG      H15S           10.9320209971      -11.4342573205        2.1851228472  MEMB      8               0.0000000000
       926         8  PYPG      C216           11.6799087163      -13.3747995857        1.3982373088  MEMB      8               0.0000000000
       927         8  PYPG      H16R           12.5499790264      -13.9944332916        1.1680443375  MEMB      8               0.0000000000
       928         8  PYPG      H16S           11.3901276955      -12.8934627947        0.4566875178  MEMB      8               0.0000000000
       929         8  PYPG      H16T           10.8375668820      -14.0180307652        1.7642087169  MEMB      8               0.0000000000
       930         8  PYPG      C33            11.7113160146      -10.8741643910       11.5531752905  MEMB      8               0.0000000000
       931         8  PYPG      H3X            11.0525746043      -10.2580632447       10.9152683706  MEMB      8               0.0000000000
       932         8  PYPG      H3Y            11.3271283186      -11.8864230761       11.3990796690  MEMB      8               0.0000000000
       933         8  PYPG      C34            13.1587219710      -10.7864063957       11.2046342698  MEMB      8               0.0000000000
       934         8  PYPG      H4X            13.6962178371      -11.7564654894       11.4239841858  MEMB      8               0.0000000000
       935         8  PYPG      H4Y            13.6934083717       -9.9124904597       11.5656298923  MEMB      8               0.0000000000
       936         8  PYPG      C35            13.4775197097      -10.3455810735        9.8364235845  MEMB      8               0.0000000000
       937         8  PYPG      H5X            13.6848788288      -11.3496202389        9.6391594385  MEMB      8               0.0000000000
       938         8  PYPG      H5Y            14.5428499136      -10.4934056644        9.6750512371  MEMB      8               0.0000000000
       939         8  PYPG      C36            12.3972238666       -9.6159310743        8.8835274392  MEMB      8               0.0000000000
       940         8  PYPG      H6X            12.1872317647       -9.0405916926        9.6822137526  MEMB      8               0.0000000000
       941         8  PYPG      H6Y            11.3522184915       -9.9342216157        8.7068086996  MEMB      8               0.0000000000
       942         8  PYPG      C37            12.8432059347       -9.0030235841        7.5508631478  MEMB      8               0.0000000000
       943         8  PYPG      H7X            13.8997173784       -8.8485135395        7.7090180693  MEMB      8               0.0000000000
       944         8  PYPG      H7Y            12.8783735924       -9.6653916374        6.6894777971  MEMB      8               0.0000000000
       945         8  PYPG      C38            12.0748093877       -7.9650281174        6.7749985613  MEMB      8               0.0000000000
       946         8  PYPG      H8X            12.7391636589       -7.6606799338        5.9183667257  MEMB      8               0.0000000000
       947         8  PYPG      H8Y            11.9418280073       -7.1503158803        7.4898716309  MEMB      8               0.0000000000
       948         8  PYPG      C39            10.7365377731       -8.4312589120        6.2392541308  MEMB      8               0.0000000000
       949         8  PYPG      H9X            10.0684095740       -8.5248880471        7.1168171083  MEMB      8               0.0000000000
       950         8  PYPG      H9Y            10.8053078045       -9.4158406865        5.7192763835  MEMB      8               0.0000000000
       951         8  PYPG      C310           10.1503672275       -7.3745142798        5.3202399828  MEMB      8               0.0000000000
       952         8  PYPG      H10X           10.4487033447       -6.3740393763        5.7042455362  MEMB      8               0.0000000000
       953         8  PYPG      H10Y            9.0428177132       -7.4227762879        5.3551132375  MEMB      8               0.0000000000
       954         8  PYPG      C311           10.6731500659       -7.5126925113        3.8938705165  MEMB      8               0.0000000000
       955         8  PYPG      H11X           11.7516808069       -7.7755548415        3.8872662233  MEMB      8               0.0000000000
       956         8  PYPG      H11Y           10.5499399199       -6.5405891865        3.4086291584  MEMB      8               0.0000000000
       957         8  PYPG      C312            9.8568387427       -8.4543549786        3.0329942021  MEMB      8               0.0000000000
       958         8  PYPG      H12X           10.4067631616       -8.6700038657        2.0898412159  MEMB      8               0.0000000000
       959         8  PYPG      H12Y            9.7738823909       -9.4014974456        3.6004490696  MEMB      8               0.0000000000
       960         8  PYPG      C313            8.4787724835       -7.8451317583        2.7163911808  MEMB      8               0.0000000000
       961         8  PYPG      H13X            7.8357944653       -7.8146081316        3.6152957685  MEMB      8               0.0000000000
       962         8  PYPG      H13Y            8.6181879548       -6.8028137862        2.3606866403  MEMB      8               0.0000000000
       963         8  PYPG      C314            7.6729150681       -8.5611526571        1.6507513300  MEMB      8               0.0000000000
       964         8  PYPG      H14X            6.7300662934       -8.0232420730        1.4268876058  MEMB      8               0.0000000000
       965         8  PYPG      H14Y            8.3031396834       -8.6628872993        0.7460654203  MEMB      8               0.0000000000
       966         8  PYPG      C315            7.2552596333       -9.9390942666        1.9222336899  MEMB      8               0.0000000000
       967         8  PYPG      H15X            8.1530688136      -10.2557957114        2.5038599923  MEMB      8               0.0000000000
       968         8  PYPG      H15Y            6.4804505378      -10.0848394874        2.6739927950  MEMB      8               0.0000000000
       969         8  PYPG      C316            6.8586007646      -10.6567506473        0.5957587938  MEMB      8               0.0000000000
       970         8  PYPG      H16X            7.7424684705      -10.8938838957       -0.0554363077  MEMB      8               0.0000000000
       971         8  PYPG      H16Y            6.1997428772      -10.1704456778       -0.1210555465  MEMB      8               0.0000000000
       972         8  PYPG      H16Z            6.3831405900      -11.6114392919        0.9077014900  MEMB      8               0.0000000000
       973         9  PMPE      N             -11.0303045440       -9.9847532798       19.8206591362  MEMB      9               0.0000000000
       974         9  PMPE      HN1           -11.4510287845       -9.2400833388       20.4009341010  MEMB      9               0.0000000000
       975         9  PMPE      HN2           -11.4202370203       -9.9749841351       18.8550975875  MEMB      9               0.0000000000
       976         9  PMPE      HN3           -11.2078386548      -10.9141856373       20.2602644472  MEMB      9               0.0000000000
       977         9  PMPE      C12            -9.5494366964       -9.7526092232       19.8110054811  MEMB      9               0.0000000000
       978         9  PMPE      H12A           -9.1675906580       -9.9840117612       20.8305113311  MEMB      9               0.0000000000
       979         9  PMPE      H12B           -9.3455449837       -8.6855684586       19.5795614717  MEMB      9               0.0000000000
       980         9  PMPE      C11            -8.8449772461      -10.6717341759       18.8240436822  MEMB      9               0.0000000000
       981         9  PMPE      H11A           -8.9652903670      -10.2763293046       17.7836026496  MEMB      9               0.0000000000
       982         9  PMPE      H11B           -9.2532268422      -11.6978203047       18.8092193428  MEMB      9               0.0000000000
       983         9  PMPE      P              -6.4170405468       -9.7725999401       18.7525380884  MEMB      9               0.0000000000
       984         9  PMPE      O13            -5.1312146973      -10.4615393549       18.5309050827  MEMB      9               0.0000000000
       985         9  PMPE      O14            -6.4293909312       -8.5691958818       19.6075390139  MEMB      9               0.0000000000
       986         9  PMPE      O11            -7.0120907458       -9.3266622959       17.3574661692  MEMB      9               0.0000000000
       987         9  PMPE      O12            -7.5037995971      -10.8014418166       19.2677961939  MEMB      9               0.0000000000
       988         9  PMPE      C1             -6.2232695783       -8.5335332030       16.4679809367  MEMB      9               0.0000000000
       989         9  PMPE      HA             -5.3704578358       -9.1339587225       16.0880393187  MEMB      9               0.0000000000
       990         9  PMPE      HB             -5.8258761133       -7.6264082824       16.9799962547  MEMB      9               0.0000000000
       991         9  PMPE      C2             -7.0878000967       -8.1215032549       15.2577450328  MEMB      9               0.0000000000
       992         9  PMPE      HS             -8.1569616122       -8.1533576800       15.5997140837  MEMB      9               0.0000000000
       993         9  PMPE      O21            -6.7495473003       -8.8817331519       14.1035361516  MEMB      9               0.0000000000
       994         9  PMPE      C21            -7.7574803165       -9.5238902597       13.5912399294  MEMB      9               0.0000000000
       995         9  PMPE      O22            -8.8681631568       -9.6479506467       14.0819529056  MEMB      9               0.0000000000
       996         9  PMPE      C22            -7.3236458935      -10.0134457431       12.2210043666  MEMB      9               0.0000000000
       997         9  PMPE      H2R            -6.7741121199      -10.9554486113       12.4256395973  MEMB      9               0.0000000000
       998         9  PMPE      H2S            -6.6667180740       -9.2972240145       11.7098320016  MEMB      9               0.0000000000
       999         9  PMPE      C3             -6.9221888078       -6.6913220293       14.8035175420  MEMB      9               0.0000000000
      1000         9  PMPE      HX             -5.9127418909       -6.3272425503       14.9578878718  MEMB      9               0.0000000000
      1001         9  PMPE      HY             -7.6549726074       -6.1822594748       15.4125484823  MEMB      9               0.0000000000
      1002         9  PMPE      O31            -7.2908360453       -6.4049925506       13.4915751173  MEMB      9               0.0000000000
      1003         9  PMPE      C31            -8.5696675743       -6.4075767418       13.3703781192  MEMB      9               0.0000000000
      1004         9  PMPE      O32            -9.4339074557       -6.6876475643       14.1890037374  MEMB      9               0.0000000000
      1005         9  PMPE      C32            -8.6806687980       -5.6914475146       12.1228929972  MEMB      9               0.0000000000
      1006         9  PMPE      H2X            -8.1266637453       -6.3452740257       11.4259184529  MEMB      9               0.0000000000
      1007         9  PMPE      H2Y            -8.2483637782       -4.6617250676       12.0910703813  MEMB      9               0.0000000000
      1008         9  PMPE      C23            -8.4887786461      -10.1731515713       11.2475730865  MEMB      9               0.0000000000
      1009         9  PMPE      H3R            -8.8464503755       -9.1963812101       10.8462847160  MEMB      9               0.0000000000
      1010         9  PMPE      H3S            -9.3112218328      -10.6546260289       11.8157616408  MEMB      9               0.0000000000
      1011         9  PMPE      C24            -8.1602776100      -11.1266648781       10.1059507483  MEMB      9               0.0000000000
      1012         9  PMPE      H4R            -9.0631504853      -11.1801762100        9.4595847708  MEMB      9               0.0000000000
      1013         9  PMPE      H4S            -7.9605395547      -12.1090333761       10.5926814817  MEMB      9               0.0000000000
      1014         9  PMPE      C25            -6.9912535186      -10.7399738180        9.2119617378  MEMB      9               0.0000000000
      1015         9  PMPE      H5R            -6.8733003744      -11.4969766178        8.3952353332  MEMB      9               0.0000000000
      1016         9  PMPE      H5S            -6.0451413354      -10.7330133049        9.7997955835  MEMB      9               0.0000000000
      1017         9  PMPE      C26            -7.1849863689       -9.4002320665        8.5063681104  MEMB      9               0.0000000000
      1018         9  PMPE      H6R            -7.2390180609       -8.5563250349        9.2351174804  MEMB      9               0.0000000000
      1019         9  PMPE      H6S            -8.1281476910       -9.4172313254        7.9174683749  MEMB      9               0.0000000000
      1020         9  PMPE      C27            -5.9820037808       -9.2708021314        7.5881289315  MEMB      9               0.0000000000
      1021         9  PMPE      H7R            -5.6754749771      -10.2347496038        7.1556225777  MEMB      9               0.0000000000
      1022         9  PMPE      H7S            -5.1342039668       -9.0264811710        8.1828965225  MEMB      9               0.0000000000
      1023         9  PMPE      C28            -6.0028628455       -8.2662951598        6.4865276794  MEMB      9               0.0000000000
      1024         9  PMPE      H8R            -6.7232292454       -8.6417694271        5.7324265583  MEMB      9               0.0000000000
      1025         9  PMPE      H8S            -4.9870401529       -8.2486800058        6.0298839657  MEMB      9               0.0000000000
      1026         9  PMPE      C29            -6.4279576185       -6.9139331348        6.9548830291  MEMB      9               0.0000000000
      1027         9  PMPE      H9R            -5.9571291506       -6.2602429672        7.6548267000  MEMB      9               0.0000000000
      1028         9  PMPE      C217           -7.8528912040       -6.5757687720        6.8403875449  MEMB      9               0.0000000000
      1029         9  PMPE      H17R           -8.0842889073       -5.7732063682        7.5613567790  MEMB      9               0.0000000000
      1030         9  PMPE      H17S           -8.5111151227       -7.2532383052        6.3589404198  MEMB      9               0.0000000000
      1031         9  PMPE      C210           -6.8156221867       -6.1405144232        5.7981815446  MEMB      9               0.0000000000
      1032         9  PMPE      H10R           -7.4685251548       -5.3117494036        5.7451286798  MEMB      9               0.0000000000
      1033         9  PMPE      C211           -6.6285365346       -6.7471314076        4.4463098838  MEMB      9               0.0000000000
      1034         9  PMPE      H11R           -6.8215503794       -5.9532521133        3.7740957708  MEMB      9               0.0000000000
      1035         9  PMPE      H11S           -7.3512493779       -7.4585007948        4.0845996678  MEMB      9               0.0000000000
      1036         9  PMPE      C212           -5.2833979207       -6.5615767859        3.8865316636  MEMB      9               0.0000000000
      1037         9  PMPE      H12R           -4.5398001192       -7.2144234222        4.3182034239  MEMB      9               0.0000000000
      1038         9  PMPE      H12S           -4.9532120536       -5.6985046963        4.4465525134  MEMB      9               0.0000000000
      1039         9  PMPE      C213           -5.3995038107       -6.6436228915        2.3398713337  MEMB      9               0.0000000000
      1040         9  PMPE      H13R           -5.6037495618       -7.6823145659        2.1281152514  MEMB      9               0.0000000000
      1041         9  PMPE      H13S           -4.4689617680       -6.4294438030        2.0752280251  MEMB      9               0.0000000000
      1042         9  PMPE      C214           -5.8970625155       -5.6476469675        1.2740010568  MEMB      9               0.0000000000
      1043         9  PMPE      H14R           -5.6504420603       -4.5933696675        1.5670544074  MEMB      9               0.0000000000
      1044         9  PMPE      H14S           -6.9753809402       -5.9252464555        1.1995263453  MEMB      9               0.0000000000
      1045         9  PMPE      C215           -5.5082098497       -5.6416257915       -0.1516878912  MEMB      9               0.0000000000
      1046         9  PMPE      H15R           -4.5185523370       -5.1550834600       -0.2134803211  MEMB      9               0.0000000000
      1047         9  PMPE      H15S           -6.2155674331       -4.8908419632       -0.6209663645  MEMB      9               0.0000000000
      1048         9  PMPE      C216           -5.5945017448       -7.0744418657       -0.7122333493  MEMB      9               0.0000000000
      1049         9  PMPE      H16R           -5.5323161195       -7.0456083686       -1.8181559403  MEMB      9               0.0000000000
      1050         9  PMPE      H16S           -5.0982267575       -7.8782662303       -0.1739475717  MEMB      9               0.0000000000
      1051         9  PMPE      H16T           -6.3876032784       -7.7309386025       -0.4105086492  MEMB      9               0.0000000000
      1052         9  PMPE      C33           -10.0706390934       -5.8182207834       11.7571601007  MEMB      9               0.0000000000
      1053         9  PMPE      H3X           -10.7302053108       -4.9780111734       11.7724707909  MEMB      9               0.0000000000
      1054         9  PMPE      H3Y           -10.7177412008       -6.4281381586       12.4187011786  MEMB      9               0.0000000000
      1055         9  PMPE      C34           -10.0194758039       -5.8798175132       10.2705697725  MEMB      9               0.0000000000
      1056         9  PMPE      H4X            -9.4743905679       -6.7177481818        9.8722481227  MEMB      9               0.0000000000
      1057         9  PMPE      H4Y            -9.8715033471       -4.8231052169        9.8603560794  MEMB      9               0.0000000000
      1058         9  PMPE      C35           -11.2287261770       -6.5921271775        9.9391918644  MEMB      9               0.0000000000
      1059         9  PMPE      H5X           -11.6358431262       -5.6570228477       10.3077301809  MEMB      9               0.0000000000
      1060         9  PMPE      H5Y           -11.7240206713       -7.0288414720       10.8269216476  MEMB      9               0.0000000000
      1061         9  PMPE      C36           -11.6738448663       -6.9087483297        8.4197275890  MEMB      9               0.0000000000
      1062         9  PMPE      H6X           -11.4461515337       -6.1175903601        7.6803824579  MEMB      9               0.0000000000
      1063         9  PMPE      H6Y           -12.7290639536       -6.8774028206        8.0249954443  MEMB      9               0.0000000000
      1064         9  PMPE      C37           -11.0651728084       -7.9171379766        7.7629499015  MEMB      9               0.0000000000
      1065         9  PMPE      H7X           -11.5428678264       -8.6737858412        8.4366543446  MEMB      9               0.0000000000
      1066         9  PMPE      H7Y           -10.0943126265       -7.4224400384        7.9880629249  MEMB      9               0.0000000000
      1067         9  PMPE      C38           -11.6664457175       -7.7191891419        6.4013659525  MEMB      9               0.0000000000
      1068         9  PMPE      H8X           -11.5685250620       -6.7501773269        5.8285732403  MEMB      9               0.0000000000
      1069         9  PMPE      H8Y           -12.7462420559       -7.9153626118        6.5263582482  MEMB      9               0.0000000000
      1070         9  PMPE      C39           -11.3117509568       -8.8930902488        5.7001463721  MEMB      9               0.0000000000
      1071         9  PMPE      H9X           -11.7177149661       -9.7075040653        6.3920668129  MEMB      9               0.0000000000
      1072         9  PMPE      H9Y           -10.2164812505       -8.9230931056        5.6562136467  MEMB      9               0.0000000000
      1073         9  PMPE      C310          -12.0691344504       -8.6837986672        4.3908744159  MEMB      9               0.0000000000
      1074         9  PMPE      H10X          -12.3854884921       -7.7389558421        3.9723133700  MEMB      9               0.0000000000
      1075         9  PMPE      H10Y          -12.9843228179       -8.9026178906        4.9240635572  MEMB      9               0.0000000000
      1076         9  PMPE      C311          -11.5267147040       -9.4333851753        3.1661193524  MEMB      9               0.0000000000
      1077         9  PMPE      H11X          -10.9639926852      -10.0710346719        3.9694625790  MEMB      9               0.0000000000
      1078         9  PMPE      H11Y          -10.6801005508       -9.0768579901        2.6256542821  MEMB      9               0.0000000000
      1079         9  PMPE      C312          -12.5646181605      -10.0781629157        1.9894574996  MEMB      9               0.0000000000
      1080         9  PMPE      H12X          -13.5622563489      -10.2087160596        2.2773746390  MEMB      9               0.0000000000
      1081         9  PMPE      H12Y          -12.7148116071      -11.1253155662        1.5910905707  MEMB      9               0.0000000000
      1082         9  PMPE      C313          -12.9949216123       -9.4961095923        0.8025009160  MEMB      9               0.0000000000
      1083         9  PMPE      H13X          -13.0858997207       -8.5339204474        1.3670517595  MEMB      9               0.0000000000
      1084         9  PMPE      H13Y          -13.9639819643       -9.8338485875        0.3847144911  MEMB      9               0.0000000000
      1085         9  PMPE      C314          -11.9506088472      -10.2331166988       -0.0148365345  MEMB      9               0.0000000000
      1086         9  PMPE      H14X          -12.2752373630      -11.1765567591       -0.4737464789  MEMB      9               0.0000000000
      1087         9  PMPE      H14Y          -10.9633254832      -10.4329099299        0.5231404947  MEMB      9               0.0000000000
      1088         9  PMPE      C315          -11.7688347335       -9.2300578787       -0.8869306721  MEMB      9               0.0000000000
      1089         9  PMPE      H15X          -12.7289745566       -8.7547061945       -1.2235441091  MEMB      9               0.0000000000
      1090         9  PMPE      H15Y          -11.1418122824       -9.6111089976       -1.7223874940  MEMB      9               0.0000000000
      1091         9  PMPE      C316          -11.0819710644       -8.3943373303        0.1470978596  MEMB      9               0.0000000000
      1092         9  PMPE      H16X          -10.3421147515       -8.2891693971       -0.6118991451  MEMB      9               0.0000000000
      1093         9  PMPE      H16Y          -10.1640590413       -8.5684697403        0.7158741097  MEMB      9               0.0000000000
      1094         9  PMPE      H16Z          -11.6337181001       -7.4557562054        0.4434325371  MEMB      9               0.0000000000
      1095        10  POPE      N              12.0926283547        5.5514112745       19.6428079032  MEMB      10              0.0000000000
      1096        10  POPE      HN1            11.8133786776        6.3624190258       20.2225720744  MEMB      10              0.0000000000
      1097        10  POPE      HN2            12.4868567003        5.8371649983       18.7228410882  MEMB      10              0.0000000000
      1098        10  POPE      HN3            11.2429801421        4.9637915738       19.4635277689  MEMB      10              0.0000000000
      1099        10  POPE      C12            13.1601920701        4.7599356854       20.3564418931  MEMB      10              0.0000000000
      1100        10  POPE      H12A           12.6540548603        3.9218615902       20.8602829147  MEMB      10              0.0000000000
      1101        10  POPE      H12B           13.6837610248        5.4146362212       21.0771462232  MEMB      10              0.0000000000
      1102        10  POPE      C11            14.1800543110        4.1463070477       19.4147916113  MEMB      10              0.0000000000
      1103        10  POPE      H11A           14.8534595084        3.4468706659       19.9848010107  MEMB      10              0.0000000000
      1104        10  POPE      H11B           14.8000947036        4.9625069306       18.9938106533  MEMB      10              0.0000000000
      1105        10  POPE      P              12.9322271298        2.0536892441       18.5063507644  MEMB      10              0.0000000000
      1106        10  POPE      O13            11.9449738070        1.8059217669       17.4438881801  MEMB      10              0.0000000000
      1107        10  POPE      O14            12.5786963340        1.8629957240       19.9063574257  MEMB      10              0.0000000000
      1108        10  POPE      O11            14.2369715447        1.3019689527       18.2882407422  MEMB      10              0.0000000000
      1109        10  POPE      O12            13.4882478448        3.5280138888       18.3428937738  MEMB      10              0.0000000000
      1110        10  POPE      C1             15.3103957988        1.6725703112       17.5002738585  MEMB      10              0.0000000000
      1111        10  POPE      HA             16.1950666290        1.0050259585       17.6561781911  MEMB      10              0.0000000000
      1112        10  POPE      HB             15.6881415667        2.6657666426       17.7849670909  MEMB      10              0.0000000000
      1113        10  POPE      C2             14.8109618005        1.6276558144       16.0654491098  MEMB      10              0.0000000000
      1114        10  POPE      HS             14.1071413435        2.4566598925       15.9544532678  MEMB      10              0.0000000000
      1115        10  POPE      O21            14.1196538701        0.6020185532       15.5897176966  MEMB      10              0.0000000000
      1116        10  POPE      C21            13.3835265424        0.4779453592       14.6179101514  MEMB      10              0.0000000000
      1117        10  POPE      O22            12.6537278119        1.2392344108       14.0087953442  MEMB      10              0.0000000000
      1118        10  POPE      C22            13.7106758953       -0.8188493119       14.0452991060  MEMB      10              0.0000000000
      1119        10  POPE      H2R            12.6469478382       -0.8331450169       13.8709151260  MEMB      10              0.0000000000
      1120        10  POPE      H2S            13.7312430995       -1.6214280683       14.6912072538  MEMB      10              0.0000000000
      1121        10  POPE      C3             15.8395811565        1.5901593549       15.1717110266  MEMB      10              0.0000000000
      1122        10  POPE      HX             16.5695152311        0.7314947235       15.1517801656  MEMB      10              0.0000000000
      1123        10  POPE      HY             16.4388029587        2.3935791571       15.6821808319  MEMB      10              0.0000000000
      1124        10  POPE      O31            15.2126802983        1.7731842345       13.8366226292  MEMB      10              0.0000000000
      1125        10  POPE      C31            14.7592003110        2.8835516884       13.3518900558  MEMB      10              0.0000000000
      1126        10  POPE      O32            14.6043094689        3.8963840330       14.0469161486  MEMB      10              0.0000000000
      1127        10  POPE      C32            15.1088396298        2.6781488684       11.7057994124  MEMB      10              0.0000000000
      1128        10  POPE      H2X            14.8065668724        3.7130693491       11.3959720092  MEMB      10              0.0000000000
      1129        10  POPE      H2Y            14.5011728733        2.0255002151       11.1489171134  MEMB      10              0.0000000000
      1130        10  POPE      C23            14.8941540493       -1.8125109442       13.6284778820  MEMB      10              0.0000000000
      1131        10  POPE      H3R            14.6589361920       -2.9221928245       13.4617899533  MEMB      10              0.0000000000
      1132        10  POPE      H3S            15.6680418995       -2.1073588166       14.3466709469  MEMB      10              0.0000000000
      1133        10  POPE      C24            14.8883052325       -1.3511364580       12.2531034423  MEMB      10              0.0000000000
      1134        10  POPE      H4R            15.3472546995       -0.3671334923       12.2997422610  MEMB      10              0.0000000000
      1135        10  POPE      H4S            13.8334337544       -1.0769314307       11.9762248754  MEMB      10              0.0000000000
      1136        10  POPE      C25            15.4185940850       -2.3818897515       11.2959929241  MEMB      10              0.0000000000
      1137        10  POPE      H5R            14.9117244972       -3.3730215955       11.3721224031  MEMB      10              0.0000000000
      1138        10  POPE      H5S            16.4268999247       -2.5917685599       11.6719414074  MEMB      10              0.0000000000
      1139        10  POPE      C26            15.3120935494       -1.7667270205        9.9083970655  MEMB      10              0.0000000000
      1140        10  POPE      H6R            15.5646138180       -0.7000741577        9.9492999422  MEMB      10              0.0000000000
      1141        10  POPE      H6S            14.2874839982       -1.7576899227        9.5338714195  MEMB      10              0.0000000000
      1142        10  POPE      C27            16.1073156780       -2.4856828794        8.8463058445  MEMB      10              0.0000000000
      1143        10  POPE      H7R            15.6383321668       -3.4822159507        8.8085686459  MEMB      10              0.0000000000
      1144        10  POPE      H7S            17.1541677814       -2.5818511784        9.1703551761  MEMB      10              0.0000000000
      1145        10  POPE      C28            16.1012373226       -1.8364467995        7.4651426037  MEMB      10              0.0000000000
      1146        10  POPE      H8R            16.5380738152       -2.5617299670        6.7444021961  MEMB      10              0.0000000000
      1147        10  POPE      H8S            16.5320298301       -0.8401102863        7.3940596586  MEMB      10              0.0000000000
      1148        10  POPE      C29            14.7610752741       -1.6840041738        6.9943979678  MEMB      10              0.0000000000
      1149        10  POPE      H91            14.5683989833       -2.6497095054        6.5729160625  MEMB      10              0.0000000000
      1150        10  POPE      C210           13.9540668443       -0.6469424703        6.8179188154  MEMB      10              0.0000000000
      1151        10  POPE      H101           12.9061231128       -0.8555720516        6.5909895232  MEMB      10              0.0000000000
      1152        10  POPE      C211           14.2690156896        0.7743390670        7.0902523469  MEMB      10              0.0000000000
      1153        10  POPE      H11R           14.9926122491        0.7811808961        7.9062851049  MEMB      10              0.0000000000
      1154        10  POPE      H11S           13.4357420568        1.3821655140        7.4454428682  MEMB      10              0.0000000000
      1155        10  POPE      C212           14.7755473334        1.4996462481        5.8543893830  MEMB      10              0.0000000000
      1156        10  POPE      H12R           15.5862714595        0.9321794396        5.3840226148  MEMB      10              0.0000000000
      1157        10  POPE      H12S           14.9153538646        2.5522080431        6.1372253941  MEMB      10              0.0000000000
      1158        10  POPE      C213           13.8615184671        1.7266090272        4.7150011195  MEMB      10              0.0000000000
      1159        10  POPE      H13R           13.0081816462        2.3199731736        5.1392481788  MEMB      10              0.0000000000
      1160        10  POPE      H13S           13.6608853738        0.6720604922        4.4225084524  MEMB      10              0.0000000000
      1161        10  POPE      C214           14.3315121220        2.4100406661        3.4685710037  MEMB      10              0.0000000000
      1162        10  POPE      H14R           15.2058264607        1.8464217409        3.1043764961  MEMB      10              0.0000000000
      1163        10  POPE      H14S           14.5040247253        3.4500256546        3.7392979345  MEMB      10              0.0000000000
      1164        10  POPE      C215           13.2999268097        2.5387952404        2.3880898216  MEMB      10              0.0000000000
      1165        10  POPE      H15R           12.5459832313        3.3261427388        2.5701937519  MEMB      10              0.0000000000
      1166        10  POPE      H15S           12.8522843511        1.5335746207        2.2380675346  MEMB      10              0.0000000000
      1167        10  POPE      C216           13.7686969299        2.8345033265        1.0847192337  MEMB      10              0.0000000000
      1168        10  POPE      H16R           14.7564519189        3.3745809533        1.0880453099  MEMB      10              0.0000000000
      1169        10  POPE      H16S           12.9850225598        3.2611522488        0.4016897947  MEMB      10              0.0000000000
      1170        10  POPE      C217           13.9975586930        1.5407210381        0.5658717563  MEMB      10              0.0000000000
      1171        10  POPE      H17R           13.4929139199        0.5284029597        0.6455822940  MEMB      10              0.0000000000
      1172        10  POPE      H17S           14.8447124415        1.3256193454        1.1156499094  MEMB      10              0.0000000000
      1173        10  POPE      C218           14.2588211331        2.1315912944       -0.6807169928  MEMB      10              0.0000000000
      1174        10  POPE      H18R           13.6396536125        2.6773437591       -1.3705259785  MEMB      10              0.0000000000
      1175        10  POPE      H18S           14.1135747144        1.0495548718       -0.9179884798  MEMB      10              0.0000000000
      1176        10  POPE      H18T           15.2841416065        2.3305450714       -1.0309504751  MEMB      10              0.0000000000
      1177        10  POPE      C33            16.4537741001        2.1556049481       10.8061330147  MEMB      10              0.0000000000
      1178        10  POPE      H3X            17.4411011740        2.3334794299       11.2797702607  MEMB      10              0.0000000000
      1179        10  POPE      H3Y            16.4832654048        2.7709512314        9.8890229198  MEMB      10              0.0000000000
      1180        10  POPE      C34            17.4104885832        1.0145991262       10.5727824067  MEMB      10              0.0000000000
      1181        10  POPE      H4X            16.7602831326        0.8817297059        9.6749074972  MEMB      10              0.0000000000
      1182        10  POPE      H4Y            17.4126622980        0.4169982699       11.4888237029  MEMB      10              0.0000000000
      1183        10  POPE      C35            18.9649540318        1.3178631297       10.2756241841  MEMB      10              0.0000000000
      1184        10  POPE      H5X            19.2481578652        0.3744277199       10.0309890321  MEMB      10              0.0000000000
      1185        10  POPE      H5Y            19.6479315700        1.9012330200       10.9105812043  MEMB      10              0.0000000000
      1186        10  POPE      C36            19.2024988160        1.6584005574        8.8617869461  MEMB      10              0.0000000000
      1187        10  POPE      H6X            18.4786425418        2.3367979835        9.2104060172  MEMB      10              0.0000000000
      1188        10  POPE      H6Y            18.2517552064        1.3825521006        8.4948990240  MEMB      10              0.0000000000
      1189        10  POPE      C37            20.5535678097        2.1829516176        8.0615852585  MEMB      10              0.0000000000
      1190        10  POPE      H7X            20.8396167472        1.3171770311        7.4507672739  MEMB      10              0.0000000000
      1191        10  POPE      H7Y            21.4042838860        2.6599118663        8.5605393200  MEMB      10              0.0000000000
      1192        10  POPE      C38            20.8113632700        3.2895688170        7.0372400497  MEMB      10              0.0000000000
      1193        10  POPE      H8X            21.1150901117        4.3892473550        7.0899748579  MEMB      10              0.0000000000
      1194        10  POPE      H8Y            19.9124559077        3.5687959613        6.5668251667  MEMB      10              0.0000000000
      1195        10  POPE      C39            20.9994889787        2.6589589846        5.8456204122  MEMB      10              0.0000000000
      1196        10  POPE      H9X            21.2669989590        1.6072932862        5.6433547917  MEMB      10              0.0000000000
      1197        10  POPE      H9Y            21.8303964208        3.3124881955        5.9308118776  MEMB      10              0.0000000000
      1198        10  POPE      C310           20.8833543842        3.4111295923        4.8124198338  MEMB      10              0.0000000000
      1199        10  POPE      H10X           21.5102580012        2.7755781826        4.1741264448  MEMB      10              0.0000000000
      1200        10  POPE      H10Y           20.7961247559        4.5452535530        5.0824648757  MEMB      10              0.0000000000
      1201        10  POPE      C311           19.9507736091        3.1440296160        4.1911191777  MEMB      10              0.0000000000
      1202        10  POPE      H11X           19.9630403298        4.3094996519        3.7180306043  MEMB      10              0.0000000000
      1203        10  POPE      H11Y           19.1787657924        3.0844016732        4.8318373578  MEMB      10              0.0000000000
      1204        10  POPE      C312           19.4087770585        1.6006200485        3.9975099783  MEMB      10              0.0000000000
      1205        10  POPE      H12X           19.9178862343        0.9340558247        4.6525744338  MEMB      10              0.0000000000
      1206        10  POPE      H12Y           19.8319740541        1.3321937945        3.1106696889  MEMB      10              0.0000000000
      1207        10  POPE      C313           17.9239914899        0.9063530543        3.7887541747  MEMB      10              0.0000000000
      1208        10  POPE      H13X           17.1511007728        1.5414057066        3.3379858887  MEMB      10              0.0000000000
      1209        10  POPE      H13Y           17.2213492436        0.6020790346        4.5611405253  MEMB      10              0.0000000000
      1210        10  POPE      C314           17.9139445438       -0.3205531056        2.7760978882  MEMB      10              0.0000000000
      1211        10  POPE      H14X           16.8227799726       -0.6764862534        2.9318069549  MEMB      10              0.0000000000
      1212        10  POPE      H14Y           17.5976154000       -1.2673209954        3.3152593699  MEMB      10              0.0000000000
      1213        10  POPE      C315           19.1691024776       -0.3607265141        0.9967016301  MEMB      10              0.0000000000
      1214        10  POPE      H15X           19.2567503282       -1.2621087374        0.3591188991  MEMB      10              0.0000000000
      1215        10  POPE      H15Y           20.1737245964       -0.2405865863        1.3607273544  MEMB      10              0.0000000000
      1216        10  POPE      C316           19.2679096588        0.5082578086       -0.5734984925  MEMB      10              0.0000000000
      1217        10  POPE      H16X           18.4864224652        0.5241984859       -1.1714199544  MEMB      10              0.0000000000
      1218        10  POPE      H16Y           20.0134982169        0.5199919068       -1.3815819402  MEMB      10              0.0000000000
      1219        10  POPE      H16Z           19.0700599738        1.6140702963       -0.4641881357  MEMB      10              0.0000000000
      1220        11  PMPE      N               0.0414354157      -11.0505841961       19.6163425920  MEMB      11              0.0000000000
      1221        11  PMPE      HN1            -0.5143003323      -10.1714937963       19.5221047156  MEMB      11              0.0000000000
      1222        11  PMPE      HN2             0.9744208029      -10.8087134937       20.0094552702  MEMB      11              0.0000000000
      1223        11  PMPE      HN3             0.1639707166      -11.4975052077       18.6795553685  MEMB      11              0.0000000000
      1224        11  PMPE      C12            -0.6796387174      -12.0902712218       20.4481894783  MEMB      11              0.0000000000
      1225        11  PMPE      H12A           -1.6471812329      -12.2927674735       19.9353103551  MEMB      11              0.0000000000
      1226        11  PMPE      H12B           -0.8370539774      -11.6987546286       21.4710151704  MEMB      11              0.0000000000
      1227        11  PMPE      C11             0.0748874593      -13.4260504827       20.4990481500  MEMB      11              0.0000000000
      1228        11  PMPE      H11A           -0.6254374568      -14.2001794537       20.8944298581  MEMB      11              0.0000000000
      1229        11  PMPE      H11B            0.9269234486      -13.3800445452       21.2132442589  MEMB      11              0.0000000000
      1230        11  PMPE      P              -0.2512757231      -14.7155110346       18.2243419509  MEMB      11              0.0000000000
      1231        11  PMPE      O13             0.5059805313      -14.7906261729       16.9685234422  MEMB      11              0.0000000000
      1232        11  PMPE      O14            -1.6255030134      -14.1989636585       18.1688893011  MEMB      11              0.0000000000
      1233        11  PMPE      O11            -0.1636526828      -16.0351984561       19.0711765748  MEMB      11              0.0000000000
      1234        11  PMPE      O12             0.5572163976      -13.7491980330       19.2013809035  MEMB      11              0.0000000000
      1235        11  PMPE      C1              1.0650072797      -16.7792947590       19.0907654590  MEMB      11              0.0000000000
      1236        11  PMPE      HA              1.1703019903      -17.1873871454       20.1214431464  MEMB      11              0.0000000000
      1237        11  PMPE      HB              1.9690379198      -16.1792128816       18.8676158216  MEMB      11              0.0000000000
      1238        11  PMPE      C2              1.0039604002      -18.0039347858       18.1481321998  MEMB      11              0.0000000000
      1239        11  PMPE      HS              1.5741722607      -18.8552869097       18.5989782393  MEMB      11              0.0000000000
      1240        11  PMPE      O21             1.4217600465      -17.8525767928       16.7800900876  MEMB      11              0.0000000000
      1241        11  PMPE      C21             2.6333623203      -17.4704472310       16.5784304874  MEMB      11              0.0000000000
      1242        11  PMPE      O22             3.4596301726      -17.3065918810       17.4627424640  MEMB      11              0.0000000000
      1243        11  PMPE      C22             2.9299114677      -17.3226823609       15.0892461439  MEMB      11              0.0000000000
      1244        11  PMPE      H2R             2.0164643392      -17.5338654581       14.5110052166  MEMB      11              0.0000000000
      1245        11  PMPE      H2S             3.6886584804      -18.1130873545       14.8634831772  MEMB      11              0.0000000000
      1246        11  PMPE      C3             -0.4328825219      -18.4548495706       18.0627775706  MEMB      11              0.0000000000
      1247        11  PMPE      HX             -0.9189383755      -18.6373715254       19.0412811003  MEMB      11              0.0000000000
      1248        11  PMPE      HY             -0.2225850393      -19.3474845705       17.5079209377  MEMB      11              0.0000000000
      1249        11  PMPE      O31            -1.2787825523      -17.6900602531       17.2545773778  MEMB      11              0.0000000000
      1250        11  PMPE      C31            -1.3145254980      -18.0161932992       15.9978624687  MEMB      11              0.0000000000
      1251        11  PMPE      O32            -0.7846880418      -18.9212475425       15.3873058956  MEMB      11              0.0000000000
      1252        11  PMPE      C32            -2.1438826390      -17.0352613794       15.3692717211  MEMB      11              0.0000000000
      1253        11  PMPE      H2X            -2.4375815305      -16.2714969686       16.1209854453  MEMB      11              0.0000000000
      1254        11  PMPE      H2Y            -3.0553915414      -17.5858854900       15.0375978525  MEMB      11              0.0000000000
      1255        11  PMPE      C23             3.4192837360      -15.8782341439       14.7908839575  MEMB      11              0.0000000000
      1256        11  PMPE      H3R             4.2240940853      -15.6468401402       15.5077506078  MEMB      11              0.0000000000
      1257        11  PMPE      H3S             2.7129810639      -15.0812425690       15.0211467188  MEMB      11              0.0000000000
      1258        11  PMPE      C24             3.9468747872      -15.6203061652       13.3831594767  MEMB      11              0.0000000000
      1259        11  PMPE      H4R             4.7760740184      -16.2807923496       13.3962125708  MEMB      11              0.0000000000
      1260        11  PMPE      H4S             4.4425088372      -14.6410624306       13.2643149395  MEMB      11              0.0000000000
      1261        11  PMPE      C25             2.9620397628      -15.9278953800       12.2677698126  MEMB      11              0.0000000000
      1262        11  PMPE      H5R             2.0353820515      -15.3747345572       12.5245137795  MEMB      11              0.0000000000
      1263        11  PMPE      H5S             2.7222611406      -17.0200506208       12.2518244883  MEMB      11              0.0000000000
      1264        11  PMPE      C26             3.3437110873      -15.4022163479       10.8807969838  MEMB      11              0.0000000000
      1265        11  PMPE      H6R             3.1081110587      -14.3345537363       10.7804087273  MEMB      11              0.0000000000
      1266        11  PMPE      H6S             2.6818876375      -16.0162548609       10.2073883718  MEMB      11              0.0000000000
      1267        11  PMPE      C27             4.8188532409      -15.5228691270       10.4742105543  MEMB      11              0.0000000000
      1268        11  PMPE      H7R             4.8331168456      -16.5561942997       10.7998220391  MEMB      11              0.0000000000
      1269        11  PMPE      H7S             5.6492229828      -15.0572582741       10.9998099286  MEMB      11              0.0000000000
      1270        11  PMPE      C28             5.0198328815      -15.4837639096        8.9757118128  MEMB      11              0.0000000000
      1271        11  PMPE      H8R             3.9760308672      -15.7576891016        8.7331318077  MEMB      11              0.0000000000
      1272        11  PMPE      H8S             5.8015741755      -16.1016555835        8.4592649509  MEMB      11              0.0000000000
      1273        11  PMPE      C29             5.3665330692      -14.3709859771        8.2089049625  MEMB      11              0.0000000000
      1274        11  PMPE      H9R             6.4065804794      -14.0414274719        8.2783629587  MEMB      11              0.0000000000
      1275        11  PMPE      C217            4.1538685739      -13.5391954504        8.0985080127  MEMB      11              0.0000000000
      1276        11  PMPE      H17R            4.5511706114      -12.6385892623        8.4819672576  MEMB      11              0.0000000000
      1277        11  PMPE      H17S            3.2398877718      -14.0540375573        8.4205860365  MEMB      11              0.0000000000
      1278        11  PMPE      C210            4.7590051442      -14.1744674115        6.8650254440  MEMB      11              0.0000000000
      1279        11  PMPE      H10R            5.2429723723      -13.4374219506        6.2162755735  MEMB      11              0.0000000000
      1280        11  PMPE      C211            3.5944372702      -14.8669635922        6.2812310273  MEMB      11              0.0000000000
      1281        11  PMPE      H11R            2.5978058603      -14.3946595171        6.4076761347  MEMB      11              0.0000000000
      1282        11  PMPE      H11S            3.4415639921      -15.9052837333        6.6737188243  MEMB      11              0.0000000000
      1283        11  PMPE      C212            3.9579828250      -14.8523162186        4.8151938084  MEMB      11              0.0000000000
      1284        11  PMPE      H12R            3.0822086518      -15.4826982906        4.9795283313  MEMB      11              0.0000000000
      1285        11  PMPE      H12S            4.8746537361      -15.3745314995        4.5397440036  MEMB      11              0.0000000000
      1286        11  PMPE      C213            3.4547595050      -14.0137412721        3.6226669353  MEMB      11              0.0000000000
      1287        11  PMPE      H13R            4.0044735803      -13.1341409378        3.9596385458  MEMB      11              0.0000000000
      1288        11  PMPE      H13S            2.3432051754      -13.9621121808        3.7606202079  MEMB      11              0.0000000000
      1289        11  PMPE      C214            4.0524964587      -14.1706768344        2.1453825317  MEMB      11              0.0000000000
      1290        11  PMPE      H14R            4.9298024988      -14.8329201267        1.9983141563  MEMB      11              0.0000000000
      1291        11  PMPE      H14S            3.8491050916      -13.2687935661        1.5306261996  MEMB      11              0.0000000000
      1292        11  PMPE      C215            3.2124245411      -14.8052872972        1.1311726634  MEMB      11              0.0000000000
      1293        11  PMPE      H15R            2.2295968348      -14.3880256343        1.4024028806  MEMB      11              0.0000000000
      1294        11  PMPE      H15S            3.3642605862      -15.7878886658        1.5275159328  MEMB      11              0.0000000000
      1295        11  PMPE      C216            3.2586709442      -15.3317291002       -0.2845897450  MEMB      11              0.0000000000
      1296        11  PMPE      H16R            3.3884696084      -16.4675904697       -0.0519557223  MEMB      11              0.0000000000
      1297        11  PMPE      H16S            2.5315270316      -16.0361940298       -0.7267207856  MEMB      11              0.0000000000
      1298        11  PMPE      H16T            2.4542057055      -14.7593398515       -0.7438907334  MEMB      11              0.0000000000
      1299        11  PMPE      C33            -1.3202363901      -16.3666504267       14.2518529692  MEMB      11              0.0000000000
      1300        11  PMPE      H3X            -0.3433522621      -15.9607514993       14.5400023317  MEMB      11              0.0000000000
      1301        11  PMPE      H3Y            -1.7052626165      -15.3631062901       14.1907890112  MEMB      11              0.0000000000
      1302        11  PMPE      C34            -1.4860578099      -17.0883888588       12.8963677204  MEMB      11              0.0000000000
      1303        11  PMPE      H4X            -2.5015608185      -17.5459386278       12.8357731799  MEMB      11              0.0000000000
      1304        11  PMPE      H4Y            -0.8214035767      -17.9398165048       12.9906715162  MEMB      11              0.0000000000
      1305        11  PMPE      C35            -0.9116647379      -16.3597144867       11.6539729454  MEMB      11              0.0000000000
      1306        11  PMPE      H5X            -0.0181404662      -15.7929570245       11.8884929268  MEMB      11              0.0000000000
      1307        11  PMPE      H5Y            -1.4571290269      -15.6042215332       11.1887120087  MEMB      11              0.0000000000
      1308        11  PMPE      C36            -1.2795263211      -16.7812603145       10.2655906623  MEMB      11              0.0000000000
      1309        11  PMPE      H6X            -2.2606100071      -17.1015511690       10.0479024663  MEMB      11              0.0000000000
      1310        11  PMPE      H6Y            -0.9992767300      -17.6964683381       10.6562386260  MEMB      11              0.0000000000
      1311        11  PMPE      C37            -0.7023380745      -15.9046659314        9.1475127742  MEMB      11              0.0000000000
      1312        11  PMPE      H7X             0.2596365683      -15.5162218653        9.5286806768  MEMB      11              0.0000000000
      1313        11  PMPE      H7Y            -1.3369866335      -15.0091609745        8.9719504919  MEMB      11              0.0000000000
      1314        11  PMPE      C38            -0.6453934739      -16.5505282866        7.7778457046  MEMB      11              0.0000000000
      1315        11  PMPE      H8X            -1.6288942664      -16.9632647413        7.4930814747  MEMB      11              0.0000000000
      1316        11  PMPE      H8Y             0.1076824710      -17.3422455948        7.7705709843  MEMB      11              0.0000000000
      1317        11  PMPE      C39            -0.2217208471      -15.5872072958        6.6938118849  MEMB      11              0.0000000000
      1318        11  PMPE      H9X             0.0495726950      -16.1881384418        5.7947227518  MEMB      11              0.0000000000
      1319        11  PMPE      H9Y             0.6650364316      -15.0573804590        7.0822629726  MEMB      11              0.0000000000
      1320        11  PMPE      C310           -1.3269629328      -14.6156199971        6.3206000061  MEMB      11              0.0000000000
      1321        11  PMPE      H10X           -1.7165450137      -14.0169900101        7.1620061021  MEMB      11              0.0000000000
      1322        11  PMPE      H10Y           -2.1609214464      -15.2305492609        6.0872898215  MEMB      11              0.0000000000
      1323        11  PMPE      C311           -1.0294736195      -13.8275008625        5.0601477057  MEMB      11              0.0000000000
      1324        11  PMPE      H11X           -1.9547015176      -13.3739225448        4.6420338715  MEMB      11              0.0000000000
      1325        11  PMPE      H11Y           -0.6647082986      -14.5120140347        4.2617521682  MEMB      11              0.0000000000
      1326        11  PMPE      C312           -0.0553508016      -12.7015156095        5.3564288778  MEMB      11              0.0000000000
      1327        11  PMPE      H12X            0.9779307670      -13.1056308270        5.3888719799  MEMB      11              0.0000000000
      1328        11  PMPE      H12Y           -0.2623364333      -12.2633594158        6.3625288555  MEMB      11              0.0000000000
      1329        11  PMPE      C313           -0.2056090811      -11.5905612397        4.3211405280  MEMB      11              0.0000000000
      1330        11  PMPE      H13X            0.4968447321      -10.7759123999        4.6034044694  MEMB      11              0.0000000000
      1331        11  PMPE      H13Y           -1.2339544768      -11.1706440457        4.3918299875  MEMB      11              0.0000000000
      1332        11  PMPE      C314            0.0938162112      -12.0505993315        2.8838118265  MEMB      11              0.0000000000
      1333        11  PMPE      H14X           -0.4236988255      -12.9923078925        2.5889095700  MEMB      11              0.0000000000
      1334        11  PMPE      H14Y            1.1851768364      -12.2633405449        2.8655974343  MEMB      11              0.0000000000
      1335        11  PMPE      C315           -0.2700572913      -10.9945224763        1.8311167454  MEMB      11              0.0000000000
      1336        11  PMPE      H15X           -1.3767061113      -10.9938105104        1.7011430683  MEMB      11              0.0000000000
      1337        11  PMPE      H15Y            0.1578977220      -11.2995179435        0.8477958509  MEMB      11              0.0000000000
      1338        11  PMPE      C316            0.2072353565       -9.5797222323        2.1708060761  MEMB      11              0.0000000000
      1339        11  PMPE      H16X            0.0548142187       -8.9159220357        1.2960831477  MEMB      11              0.0000000000
      1340        11  PMPE      H16Y            1.2888143431       -9.5873587238        2.4190996095  MEMB      11              0.0000000000
      1341        11  PMPE      H16Z           -0.3322552387       -9.1401784085        3.0378427559  MEMB      11              0.0000000000
      1342        12  PMPE      N              12.3076495263       -6.1802433940       18.0534583035  MEMB      12              0.0000000000
      1343        12  PMPE      HN1            12.5792390325       -5.8524923695       19.0141693632  MEMB      12              0.0000000000
      1344        12  PMPE      HN2            11.5393616335       -5.5851122845       17.6862198657  MEMB      12              0.0000000000
      1345        12  PMPE      HN3            12.0365644863       -7.1779842910       18.1158863150  MEMB      12              0.0000000000
      1346        12  PMPE      C12            13.5504296389       -6.0359333230       17.2166057841  MEMB      12              0.0000000000
      1347        12  PMPE      H12A           13.7102335453       -4.9674777873       17.0916228734  MEMB      12              0.0000000000
      1348        12  PMPE      H12B           13.3981794251       -6.4509763679       16.2101954889  MEMB      12              0.0000000000
      1349        12  PMPE      C11            14.7708845248       -6.6399751303       17.9133807762  MEMB      12              0.0000000000
      1350        12  PMPE      H11A           15.6870360457       -6.3262476321       17.3587049187  MEMB      12              0.0000000000
      1351        12  PMPE      H11B           14.7642327050       -7.7516173819       17.9062724844  MEMB      12              0.0000000000
      1352        12  PMPE      P              15.0917272521       -4.8362204158       19.8735504880  MEMB      12              0.0000000000
      1353        12  PMPE      O13            16.0100006357       -4.9307547784       21.0293716314  MEMB      12              0.0000000000
      1354        12  PMPE      O14            13.7405632661       -4.2792019727       20.0797593357  MEMB      12              0.0000000000
      1355        12  PMPE      O11            15.8074061656       -4.0954822899       18.6594841047  MEMB      12              0.0000000000
      1356        12  PMPE      O12            14.8087795927       -6.2741947789       19.2756040286  MEMB      12              0.0000000000
      1357        12  PMPE      C1             16.6554526444       -2.9786903594       18.9973556887  MEMB      12              0.0000000000
      1358        12  PMPE      HA             17.5481675350       -3.2577444399       19.5587528761  MEMB      12              0.0000000000
      1359        12  PMPE      HB             16.0988813594       -2.3550167177       19.7395559354  MEMB      12              0.0000000000
      1360        12  PMPE      C2             17.1642109061       -2.1619420838       17.7275143271  MEMB      12              0.0000000000
      1361        12  PMPE      HS             17.5297476521       -1.1409338272       17.9152370675  MEMB      12              0.0000000000
      1362        12  PMPE      O21            16.1377367305       -1.9035245008       16.8764595132  MEMB      12              0.0000000000
      1363        12  PMPE      C21            15.1338085432       -1.3662986786       17.6432309531  MEMB      12              0.0000000000
      1364        12  PMPE      O22            15.3109768763       -0.7955463697       18.6872331850  MEMB      12              0.0000000000
      1365        12  PMPE      C22            13.8526689218       -1.3774904894       16.9286900099  MEMB      12              0.0000000000
      1366        12  PMPE      H2R            14.5164950762       -1.2611918504       16.0870239434  MEMB      12              0.0000000000
      1367        12  PMPE      H2S            13.2419558606       -0.4703582260       17.0620966113  MEMB      12              0.0000000000
      1368        12  PMPE      C3             18.2244681429       -2.8518016802       16.8933640650  MEMB      12              0.0000000000
      1369        12  PMPE      HX             19.0485831116       -3.1528736901       17.5676946044  MEMB      12              0.0000000000
      1370        12  PMPE      HY             18.5875313335       -2.0806720361       16.1582019498  MEMB      12              0.0000000000
      1371        12  PMPE      O31            17.5846350335       -3.9850794109       16.2889913232  MEMB      12              0.0000000000
      1372        12  PMPE      C31            17.8816229055       -4.2188682504       15.0472338091  MEMB      12              0.0000000000
      1373        12  PMPE      O32            18.8625046659       -3.8195943768       14.4480874086  MEMB      12              0.0000000000
      1374        12  PMPE      C32            16.7019820781       -4.9978943022       14.4384177923  MEMB      12              0.0000000000
      1375        12  PMPE      H2X            16.1858164710       -4.3767456586       13.6896763499  MEMB      12              0.0000000000
      1376        12  PMPE      H2Y            16.0202765091       -5.3307707154       15.2448178536  MEMB      12              0.0000000000
      1377        12  PMPE      C23            12.9068641487       -2.5300649424       16.6590353270  MEMB      12              0.0000000000
      1378        12  PMPE      H3R            12.4110045973       -2.4833698228       17.6597541416  MEMB      12              0.0000000000
      1379        12  PMPE      H3S            13.6650474060       -3.2822265078       16.4528088769  MEMB      12              0.0000000000
      1380        12  PMPE      C24            11.8655985177       -2.5182336339       15.4654953857  MEMB      12              0.0000000000
      1381        12  PMPE      H4R            11.3380419110       -1.5436055518       15.4130382030  MEMB      12              0.0000000000
      1382        12  PMPE      H4S            11.0982576718       -3.2257844890       15.8155698519  MEMB      12              0.0000000000
      1383        12  PMPE      C25            12.2611264307       -2.9731871732       13.9719380362  MEMB      12              0.0000000000
      1384        12  PMPE      H5R            12.8653557661       -3.8949351834       14.0404147378  MEMB      12              0.0000000000
      1385        12  PMPE      H5S            12.9275033165       -2.6742495491       13.2844868056  MEMB      12              0.0000000000
      1386        12  PMPE      C26            11.4329134897       -2.2394011865       12.7127536260  MEMB      12              0.0000000000
      1387        12  PMPE      H6R            11.3640142894       -1.1710210569       12.6667296516  MEMB      12              0.0000000000
      1388        12  PMPE      H6S            10.3852707441       -2.5245188881       12.4413694232  MEMB      12              0.0000000000
      1389        12  PMPE      C27            12.0650242937       -2.5114952717       11.4923635026  MEMB      12              0.0000000000
      1390        12  PMPE      H7R            11.4609397928       -3.3342177755       11.2356458037  MEMB      12              0.0000000000
      1391        12  PMPE      H7S            13.1231453068       -2.7503319384       11.4534648857  MEMB      12              0.0000000000
      1392        12  PMPE      C28            11.6405279351       -2.0165801274       10.3543129026  MEMB      12              0.0000000000
      1393        12  PMPE      H8R            12.5444928895       -2.1079121965        9.7655483301  MEMB      12              0.0000000000
      1394        12  PMPE      H8S            11.9599547781       -1.0263637319       10.7166003132  MEMB      12              0.0000000000
      1395        12  PMPE      C29            10.1314433793       -2.6464210577       10.0131846081  MEMB      12              0.0000000000
      1396        12  PMPE      H9R             9.3770537495       -2.2732852137       10.6830487631  MEMB      12              0.0000000000
      1397        12  PMPE      C217            9.5763685710       -4.0486727050        9.5609609280  MEMB      12              0.0000000000
      1398        12  PMPE      H17R            8.5891369976       -4.3444669795        9.7811920464  MEMB      12              0.0000000000
      1399        12  PMPE      H17S           10.2578840284       -4.7952888232        9.8658205205  MEMB      12              0.0000000000
      1400        12  PMPE      C210            9.5738938850       -2.8336340688        8.6441377097  MEMB      12              0.0000000000
      1401        12  PMPE      H10R            8.6354807403       -2.3755601358        8.3777680005  MEMB      12              0.0000000000
      1402        12  PMPE      C211           10.3555017659       -2.7009336382        7.4697257123  MEMB      12              0.0000000000
      1403        12  PMPE      H11R           10.9077853709       -3.5061533707        7.5282590764  MEMB      12              0.0000000000
      1404        12  PMPE      H11S           11.1556290555       -1.9155735881        7.4449121151  MEMB      12              0.0000000000
      1405        12  PMPE      C212            9.8584523187       -3.4304782465        6.2675022606  MEMB      12              0.0000000000
      1406        12  PMPE      H12R            9.1902553409       -4.2966977952        6.3943580758  MEMB      12              0.0000000000
      1407        12  PMPE      H12S           10.5010551446       -4.2542333837        5.9281618155  MEMB      12              0.0000000000
      1408        12  PMPE      C213           10.0026877849       -2.2904806316        5.2631967584  MEMB      12              0.0000000000
      1409        12  PMPE      H13R            9.4772254479       -1.4636051549        5.7489308651  MEMB      12              0.0000000000
      1410        12  PMPE      H13S            9.1215423804       -2.5694581703        4.6656997557  MEMB      12              0.0000000000
      1411        12  PMPE      C214           11.4691656837       -1.8345162828        4.3992314930  MEMB      12              0.0000000000
      1412        12  PMPE      H14R           12.2058431910       -1.3531711589        5.0052568773  MEMB      12              0.0000000000
      1413        12  PMPE      H14S           10.9588570720       -1.3075503733        3.6191282239  MEMB      12              0.0000000000
      1414        12  PMPE      C215           12.6763310353       -2.3441093244        3.3987736423  MEMB      12              0.0000000000
      1415        12  PMPE      H15R           12.4062415605       -3.0652239388        2.6256927212  MEMB      12              0.0000000000
      1416        12  PMPE      H15S           13.5244913041       -2.7897572127        3.9347612699  MEMB      12              0.0000000000
      1417        12  PMPE      C216           13.3896777817       -1.5958507337        2.3405444748  MEMB      12              0.0000000000
      1418        12  PMPE      H16R           12.5815553026       -1.1680334625        1.7092089616  MEMB      12              0.0000000000
      1419        12  PMPE      H16S           14.0215807603       -0.9227432840        2.9420194832  MEMB      12              0.0000000000
      1420        12  PMPE      H16T           13.9811984575       -2.3762668363        1.7703110100  MEMB      12              0.0000000000
      1421        12  PMPE      C33            17.1872678928       -6.2433929028       13.7387365012  MEMB      12              0.0000000000
      1422        12  PMPE      H3X            17.6463793363       -6.8215151492       14.5793020196  MEMB      12              0.0000000000
      1423        12  PMPE      H3Y            17.9099940181       -5.9405633965       12.9394985574  MEMB      12              0.0000000000
      1424        12  PMPE      C34            16.1860156740       -7.1692691345       13.1006995407  MEMB      12              0.0000000000
      1425        12  PMPE      H4X            15.4661635425       -7.5328693396       13.8579294170  MEMB      12              0.0000000000
      1426        12  PMPE      H4Y            16.6915184412       -8.0828367837       12.7088788032  MEMB      12              0.0000000000
      1427        12  PMPE      C35            15.4895182968       -6.5597034753       11.9117764657  MEMB      12              0.0000000000
      1428        12  PMPE      H5X            16.2301514060       -6.4247540309       11.0916460936  MEMB      12              0.0000000000
      1429        12  PMPE      H5Y            15.0692968492       -5.5579127994       12.1435202826  MEMB      12              0.0000000000
      1430        12  PMPE      C36            14.4430663797       -7.6032736666       11.5405697781  MEMB      12              0.0000000000
      1431        12  PMPE      H6X            13.8633898717       -7.8087366226       12.4608704587  MEMB      12              0.0000000000
      1432        12  PMPE      H6Y            14.9625744761       -8.4756510426       11.1116058594  MEMB      12              0.0000000000
      1433        12  PMPE      C37            13.5281342157       -7.3563108390       10.4186536619  MEMB      12              0.0000000000
      1434        12  PMPE      H7X            12.6995347522       -7.0339290627       11.0700861043  MEMB      12              0.0000000000
      1435        12  PMPE      H7Y            12.4899606871       -7.4688483212       10.1070044851  MEMB      12              0.0000000000
      1436        12  PMPE      C38            14.1936755327       -6.5370814108        9.3821202274  MEMB      12              0.0000000000
      1437        12  PMPE      H8X            14.7809474952       -5.7045438987        9.8090913745  MEMB      12              0.0000000000
      1438        12  PMPE      H8Y            13.2601029202       -6.3400036014        8.8230113558  MEMB      12              0.0000000000
      1439        12  PMPE      C39            14.8843345673       -6.9083735690        8.2294068721  MEMB      12              0.0000000000
      1440        12  PMPE      H9X            14.1590653539       -7.1134636230        7.4242597337  MEMB      12              0.0000000000
      1441        12  PMPE      H9Y            15.4758429682       -7.7084327830        8.6932843545  MEMB      12              0.0000000000
      1442        12  PMPE      C310           15.5482560260       -5.8224795580        7.5005499434  MEMB      12              0.0000000000
      1443        12  PMPE      H10X           16.0797298445       -5.1458677329        8.1794720797  MEMB      12              0.0000000000
      1444        12  PMPE      H10Y           14.9278234069       -5.2878491874        6.7463181600  MEMB      12              0.0000000000
      1445        12  PMPE      C311           16.4468852128       -6.5896608652        6.6788822369  MEMB      12              0.0000000000
      1446        12  PMPE      H11X           15.9514403927       -7.4913383348        6.2533431733  MEMB      12              0.0000000000
      1447        12  PMPE      H11Y           17.1196921661       -6.9498938539        7.4885532979  MEMB      12              0.0000000000
      1448        12  PMPE      C312           17.0448243834       -5.6313950999        5.6815551305  MEMB      12              0.0000000000
      1449        12  PMPE      H12X           17.9791268847       -6.1051267247        5.4833491408  MEMB      12              0.0000000000
      1450        12  PMPE      H12Y           17.4194988364       -4.7080232079        6.1381198882  MEMB      12              0.0000000000
      1451        12  PMPE      C313           16.2923425683       -5.3912807476        4.3472482034  MEMB      12              0.0000000000
      1452        12  PMPE      H13X           17.0817702239       -5.1785771821        3.5805081795  MEMB      12              0.0000000000
      1453        12  PMPE      H13Y           15.6100918702       -4.5499889321        4.4243334234  MEMB      12              0.0000000000
      1454        12  PMPE      C314           15.4078565030       -6.5638696910        3.9275497822  MEMB      12              0.0000000000
      1455        12  PMPE      H14X           14.7513482267       -6.9894319348        4.6892998483  MEMB      12              0.0000000000
      1456        12  PMPE      H14Y           16.1079888238       -7.3425962624        3.9999407002  MEMB      12              0.0000000000
      1457        12  PMPE      C315           14.6207471461       -6.5598024235        2.6141784016  MEMB      12              0.0000000000
      1458        12  PMPE      H15X           13.9109778604       -5.7710844889        2.6126309015  MEMB      12              0.0000000000
      1459        12  PMPE      H15Y           14.2337799194       -7.6149359142        2.4179499644  MEMB      12              0.0000000000
      1460        12  PMPE      C316           15.2495214283       -6.0512718822        1.3919776028  MEMB      12              0.0000000000
      1461        12  PMPE      H16X           14.8830419985       -6.1194066696        0.3547753490  MEMB      12              0.0000000000
      1462        12  PMPE      H16Y           15.6424638322       -7.0504359496        1.4136174691  MEMB      12              0.0000000000
      1463        12  PMPE      H16Z           16.0946183423       -5.3631554922        1.4801118578  MEMB      12              0.0000000000
      1464        13  POPE      N             -17.8029507775       -0.2838099704       20.6556152316  MEMB      13              0.0000000000
      1465        13  POPE      HN1           -17.6490310510       -0.3491034026       21.6859445118  MEMB      13              0.0000000000
      1466        13  POPE      HN2           -18.4069005776       -1.0805880093       20.3439705768  MEMB      13              0.0000000000
      1467        13  POPE      HN3           -16.8547358471       -0.3811069266       20.2435571318  MEMB      13              0.0000000000
      1468        13  POPE      C12           -18.3129325352        1.0857048476       20.3062315374  MEMB      13              0.0000000000
      1469        13  POPE      H12A          -18.2197157733        1.6675383638       21.2355768721  MEMB      13              0.0000000000
      1470        13  POPE      H12B          -19.3811414207        0.9758244560       20.0219776193  MEMB      13              0.0000000000
      1471        13  POPE      C11           -17.5188809404        1.7894535250       19.1674038545  MEMB      13              0.0000000000
      1472        13  POPE      H11A          -18.0956512353        2.7082795862       18.8974744331  MEMB      13              0.0000000000
      1473        13  POPE      H11B          -17.5422545173        1.0868158076       18.3055059018  MEMB      13              0.0000000000
      1474        13  POPE      P             -15.1530182470        2.6967023800       18.3672826985  MEMB      13              0.0000000000
      1475        13  POPE      O13           -13.7537303166        2.3537870701       18.7037609030  MEMB      13              0.0000000000
      1476        13  POPE      O14           -15.3873403000        4.1298452858       18.1141964592  MEMB      13              0.0000000000
      1477        13  POPE      O11           -15.6807321741        1.8563467946       17.1567482490  MEMB      13              0.0000000000
      1478        13  POPE      O12           -16.1721317600        2.1737750449       19.5094799973  MEMB      13              0.0000000000
      1479        13  POPE      C1            -15.9696218553        2.4790330940       15.9143543557  MEMB      13              0.0000000000
      1480        13  POPE      HA            -15.0515635621        2.9297326874       15.4758012146  MEMB      13              0.0000000000
      1481        13  POPE      HB            -16.7585050660        3.2671865593       16.0138939191  MEMB      13              0.0000000000
      1482        13  POPE      C2            -16.4114333073        1.3872256309       14.9335940659  MEMB      13              0.0000000000
      1483        13  POPE      HS            -16.7143679057        1.8632731586       13.9720035303  MEMB      13              0.0000000000
      1484        13  POPE      O21           -17.5035037442        0.5994488348       15.4653490127  MEMB      13              0.0000000000
      1485        13  POPE      C21           -18.6522390555        1.2208943876       15.6682252814  MEMB      13              0.0000000000
      1486        13  POPE      O22           -18.9059550578        2.3750804269       15.3918445047  MEMB      13              0.0000000000
      1487        13  POPE      C22           -19.6428812931        0.2032287819       16.1787938545  MEMB      13              0.0000000000
      1488        13  POPE      H2R           -20.5956358185        0.7165114358       16.4249079244  MEMB      13              0.0000000000
      1489        13  POPE      H2S           -19.2601739729       -0.3515414853       17.0455617986  MEMB      13              0.0000000000
      1490        13  POPE      C3            -15.2510494771        0.4189459931       14.5760430131  MEMB      13              0.0000000000
      1491        13  POPE      HX            -15.0056907452       -0.1593949568       15.5155687664  MEMB      13              0.0000000000
      1492        13  POPE      HY            -14.3267209887        0.9169670166       14.2318940326  MEMB      13              0.0000000000
      1493        13  POPE      O31           -15.8280614935       -0.3733496045       13.5344972209  MEMB      13              0.0000000000
      1494        13  POPE      C31           -15.2653985051       -0.9300736445       12.4738647754  MEMB      13              0.0000000000
      1495        13  POPE      O32           -14.1229112956       -0.7240600515       12.1085479333  MEMB      13              0.0000000000
      1496        13  POPE      C32           -16.2878850922       -1.9674412455       11.8445982109  MEMB      13              0.0000000000
      1497        13  POPE      H2X           -17.3186217291       -2.0487830500       12.1564252312  MEMB      13              0.0000000000
      1498        13  POPE      H2Y           -16.2794534306       -2.8900409827       12.3410002582  MEMB      13              0.0000000000
      1499        13  POPE      C23           -19.9631971891       -0.7701973640       15.0759394100  MEMB      13              0.0000000000
      1500        13  POPE      H3R           -20.6276718604       -1.5697735015       15.4912497745  MEMB      13              0.0000000000
      1501        13  POPE      H3S           -19.0689042358       -1.2959480853       14.6659518221  MEMB      13              0.0000000000
      1502        13  POPE      C24           -20.7570884360        0.0111165585       14.0329974994  MEMB      13              0.0000000000
      1503        13  POPE      H4R           -21.5099802235        0.7038722593       14.3951883704  MEMB      13              0.0000000000
      1504        13  POPE      H4S           -21.5247010284       -0.7609238921       13.7792829018  MEMB      13              0.0000000000
      1505        13  POPE      C25           -19.8248493464        0.6122645385       12.8931133364  MEMB      13              0.0000000000
      1506        13  POPE      H5R           -18.9870404856       -0.1070589107       12.6356889738  MEMB      13              0.0000000000
      1507        13  POPE      H5S           -19.4406598279        1.6039888102       13.1182857135  MEMB      13              0.0000000000
      1508        13  POPE      C26           -20.5410955688        0.9349928193       11.5945835404  MEMB      13              0.0000000000
      1509        13  POPE      H6R           -21.4906692474        1.4612150188       11.5144287195  MEMB      13              0.0000000000
      1510        13  POPE      H6S           -21.1274028960        0.0464882794       11.8058871441  MEMB      13              0.0000000000
      1511        13  POPE      C27           -19.6836022432        1.1760762165       10.2693834967  MEMB      13              0.0000000000
      1512        13  POPE      H7R           -18.9775740778        0.3731287675        9.9738708961  MEMB      13              0.0000000000
      1513        13  POPE      H7S           -19.2629573046        2.1788509323       10.4349798193  MEMB      13              0.0000000000
      1514        13  POPE      C28           -20.3265117895        1.6742895612        8.9514912270  MEMB      13              0.0000000000
      1515        13  POPE      H8R           -21.3153804601        2.0277944677        9.2861569399  MEMB      13              0.0000000000
      1516        13  POPE      H8S           -20.6413524568        0.9185806781        8.2996375383  MEMB      13              0.0000000000
      1517        13  POPE      C29           -19.7386763352        2.1077070330        7.6389383605  MEMB      13              0.0000000000
      1518        13  POPE      H91           -20.4497040975        2.7348441097        7.0836639412  MEMB      13              0.0000000000
      1519        13  POPE      C210          -18.7489181779        1.5861900291        6.8958742264  MEMB      13              0.0000000000
      1520        13  POPE      H101          -18.5392977281        2.1210832017        5.9600998412  MEMB      13              0.0000000000
      1521        13  POPE      C211          -17.8837261266        0.3759219681        7.1693563062  MEMB      13              0.0000000000
      1522        13  POPE      H11R          -17.9599189698       -0.3828058065        6.3603657036  MEMB      13              0.0000000000
      1523        13  POPE      H11S          -18.1716246518       -0.1555771307        8.0955612746  MEMB      13              0.0000000000
      1524        13  POPE      C212          -16.4008086582        0.7586371291        7.3106881116  MEMB      13              0.0000000000
      1525        13  POPE      H12R          -15.8243007020       -0.1906049441        7.3874204013  MEMB      13              0.0000000000
      1526        13  POPE      H12S          -16.2696958152        1.3509794956        8.2461693419  MEMB      13              0.0000000000
      1527        13  POPE      C213          -15.8434814877        1.5670894348        6.1329080880  MEMB      13              0.0000000000
      1528        13  POPE      H13R          -14.7508450525        1.7482270661        6.2508106732  MEMB      13              0.0000000000
      1529        13  POPE      H13S          -16.3589554075        2.5557850634        6.1457229012  MEMB      13              0.0000000000
      1530        13  POPE      C214          -16.0881371826        0.9147279423        4.7646019846  MEMB      13              0.0000000000
      1531        13  POPE      H14R          -15.8711403012        1.6955808638        4.0051400523  MEMB      13              0.0000000000
      1532        13  POPE      H14S          -17.1584417809        0.6292686943        4.6748483868  MEMB      13              0.0000000000
      1533        13  POPE      C215          -15.1795283477       -0.2880109133        4.4769485980  MEMB      13              0.0000000000
      1534        13  POPE      H15R          -15.4250857653       -1.1197063330        5.1735255388  MEMB      13              0.0000000000
      1535        13  POPE      H15S          -14.1226705588        0.0099765142        4.6638187963  MEMB      13              0.0000000000
      1536        13  POPE      C216          -15.2052825872       -0.7723628252        3.0185550694  MEMB      13              0.0000000000
      1537        13  POPE      H16R          -14.7755249447        0.0239536211        2.3799737894  MEMB      13              0.0000000000
      1538        13  POPE      H16S          -16.2468764960       -0.9642240963        2.6639094897  MEMB      13              0.0000000000
      1539        13  POPE      C217          -14.3211252955       -2.0036103047        2.8343369343  MEMB      13              0.0000000000
      1540        13  POPE      H17R          -13.5501715597       -2.0481797062        3.6426305589  MEMB      13              0.0000000000
      1541        13  POPE      H17S          -13.7961634911       -2.0368691997        1.8593623893  MEMB      13              0.0000000000
      1542        13  POPE      C218          -15.1822879194       -3.2214265692        2.8389158640  MEMB      13              0.0000000000
      1543        13  POPE      H18R          -14.5496209521       -4.1360850539        2.7875135296  MEMB      13              0.0000000000
      1544        13  POPE      H18S          -15.9051361905       -3.2387174118        2.0024479444  MEMB      13              0.0000000000
      1545        13  POPE      H18T          -15.7902030107       -3.1711979715        3.7632683239  MEMB      13              0.0000000000
      1546        13  POPE      C33           -16.1600527610       -2.5863788142       10.4955031382  MEMB      13              0.0000000000
      1547        13  POPE      H3X           -15.1134558156       -2.8140943268       10.1913249680  MEMB      13              0.0000000000
      1548        13  POPE      H3Y           -16.5758428011       -1.6687388297       10.0521734309  MEMB      13              0.0000000000
      1549        13  POPE      C34           -17.0807085090       -3.8350564997       10.4273167479  MEMB      13              0.0000000000
      1550        13  POPE      H4X           -17.9237342443       -3.8584286026       11.1591694832  MEMB      13              0.0000000000
      1551        13  POPE      H4Y           -16.5311986627       -4.7727153640       10.6528511224  MEMB      13              0.0000000000
      1552        13  POPE      C35           -17.6046852337       -3.9752550156        9.0146125933  MEMB      13              0.0000000000
      1553        13  POPE      H5X           -17.9607660698       -5.0205671834        8.9074535658  MEMB      13              0.0000000000
      1554        13  POPE      H5Y           -16.7596183553       -3.7523518610        8.3389266902  MEMB      13              0.0000000000
      1555        13  POPE      C36           -18.7896850994       -3.0976670423        8.6870736882  MEMB      13              0.0000000000
      1556        13  POPE      H6X           -18.6130825966       -2.0270627633        8.9239206651  MEMB      13              0.0000000000
      1557        13  POPE      H6Y           -19.5542448816       -3.5586339676        9.3107941294  MEMB      13              0.0000000000
      1558        13  POPE      C37           -19.4471483047       -3.2330191002        7.3283897260  MEMB      13              0.0000000000
      1559        13  POPE      H7X           -20.0043787898       -2.3226698884        7.0496390411  MEMB      13              0.0000000000
      1560        13  POPE      H7Y           -20.1877188281       -4.0671595858        7.3147713184  MEMB      13              0.0000000000
      1561        13  POPE      C38           -18.4434926329       -3.2832728117        6.2703678596  MEMB      13              0.0000000000
      1562        13  POPE      H8X           -17.9568707863       -4.2559506338        6.4378462882  MEMB      13              0.0000000000
      1563        13  POPE      H8Y           -17.6941612877       -2.4752554665        6.3518200534  MEMB      13              0.0000000000
      1564        13  POPE      C39           -19.1209023362       -3.1687952543        4.9424167912  MEMB      13              0.0000000000
      1565        13  POPE      H9X           -19.6114952082       -4.1672664026        4.8209009867  MEMB      13              0.0000000000
      1566        13  POPE      H9Y           -18.2833609472       -2.9814575032        4.2235571800  MEMB      13              0.0000000000
      1567        13  POPE      C310          -20.0854392558       -2.0131233513        4.7145096843  MEMB      13              0.0000000000
      1568        13  POPE      H10X          -19.5158140125       -1.0778287510        4.8333052985  MEMB      13              0.0000000000
      1569        13  POPE      H10Y          -21.0195604896       -2.1757311719        5.2973668044  MEMB      13              0.0000000000
      1570        13  POPE      C311          -20.5039771277       -1.8768815303        3.3045450696  MEMB      13              0.0000000000
      1571        13  POPE      H11X          -19.5533550256       -2.3079439957        2.9591191686  MEMB      13              0.0000000000
      1572        13  POPE      H11Y          -20.3872563109       -0.9675409037        2.7155077551  MEMB      13              0.0000000000
      1573        13  POPE      C312          -21.8312582193       -2.6615419171        3.1692848681  MEMB      13              0.0000000000
      1574        13  POPE      H12X          -22.7061939211       -2.2231230995        3.6581252575  MEMB      13              0.0000000000
      1575        13  POPE      H12Y          -21.5905104804       -3.4962757689        3.7892413594  MEMB      13              0.0000000000
      1576        13  POPE      C313          -22.2350700374       -3.1470019003        1.7968618207  MEMB      13              0.0000000000
      1577        13  POPE      H13X          -23.1586545454       -3.6006606927        1.5649699030  MEMB      13              0.0000000000
      1578        13  POPE      H13Y          -21.7545130287       -3.8409495110        1.1051386310  MEMB      13              0.0000000000
      1579        13  POPE      C314          -21.8860899789       -2.0084663693        1.3023762617  MEMB      13              0.0000000000
      1580        13  POPE      H14X          -21.7283218243       -2.4171810193        0.1719718585  MEMB      13              0.0000000000
      1581        13  POPE      H14Y          -20.8759616161       -1.7827330996        0.8456855567  MEMB      13              0.0000000000
      1582        13  POPE      C315          -23.1741586760       -0.8079062098        1.8318246748  MEMB      13              0.0000000000
      1583        13  POPE      H15X          -22.6102361996       -0.2712436546        2.5703194776  MEMB      13              0.0000000000
      1584        13  POPE      H15Y          -23.9982922614       -1.3486766320        2.2925811705  MEMB      13              0.0000000000
      1585        13  POPE      C316          -24.3193393235        0.2490113764        0.8765628900  MEMB      13              0.0000000000
      1586        13  POPE      H16X          -24.6868778303        0.1060720081       -0.2079897303  MEMB      13              0.0000000000
      1587        13  POPE      H16Y          -23.9155987176        0.9871321816        0.2282100747  MEMB      13              0.0000000000
      1588        13  POPE      H16Z          -24.3266334526        1.1762914533        1.2750481578  MEMB      13              0.0000000000
      1589        14  PMPE      N               3.3774511402       13.7867973054       18.6832280248  MEMB      14              0.0000000000
      1590        14  PMPE      HN1             2.9944190328       14.1074790941       17.7730740121  MEMB      14              0.0000000000
      1591        14  PMPE      HN2             4.4062807089       13.6249402228       18.5576914879  MEMB      14              0.0000000000
      1592        14  PMPE      HN3             2.9158896546       12.9058030377       18.9674357473  MEMB      14              0.0000000000
      1593        14  PMPE      C12             3.2605063200       14.9173066081       19.6668667257  MEMB      14              0.0000000000
      1594        14  PMPE      H12A            3.9733218880       14.7169869766       20.4934339278  MEMB      14              0.0000000000
      1595        14  PMPE      H12B            2.2343484887       14.9433541922       20.0784431986  MEMB      14              0.0000000000
      1596        14  PMPE      C11             3.6023909862       16.2068151037       18.9164784370  MEMB      14              0.0000000000
      1597        14  PMPE      H11A            3.5558501255       17.0994053482       19.5887742012  MEMB      14              0.0000000000
      1598        14  PMPE      H11B            2.8067417308       16.3914069350       18.1542699363  MEMB      14              0.0000000000
      1599        14  PMPE      P               6.2128318782       16.4364075516       19.0476792747  MEMB      14              0.0000000000
      1600        14  PMPE      O13             6.5999520299       15.2022940626       19.7608860662  MEMB      14              0.0000000000
      1601        14  PMPE      O14             5.9100262534       17.6302139316       19.8669406751  MEMB      14              0.0000000000
      1602        14  PMPE      O11             7.3061290554       16.7691425908       17.9542716448  MEMB      14              0.0000000000
      1603        14  PMPE      O12             4.8720727364       16.0638955411       18.2539464100  MEMB      14              0.0000000000
      1604        14  PMPE      C1              7.4207375169       16.1701627741       16.6569950875  MEMB      14              0.0000000000
      1605        14  PMPE      HA              6.9011974536       15.1851132375       16.5697198060  MEMB      14              0.0000000000
      1606        14  PMPE      HB              8.4956054227       16.0340113494       16.4335904270  MEMB      14              0.0000000000
      1607        14  PMPE      C2              6.8867108602       17.1239817675       15.5892615005  MEMB      14              0.0000000000
      1608        14  PMPE      HS              7.4917454299       18.0605832790       15.6761095971  MEMB      14              0.0000000000
      1609        14  PMPE      O21             5.5880945855       17.3840259393       16.0199151403  MEMB      14              0.0000000000
      1610        14  PMPE      C21             5.1409344813       18.4164561153       15.5635073463  MEMB      14              0.0000000000
      1611        14  PMPE      O22             5.4956307658       19.0831569951       14.5869452818  MEMB      14              0.0000000000
      1612        14  PMPE      C22             3.9889224152       18.7279587429       16.4679871477  MEMB      14              0.0000000000
      1613        14  PMPE      H2R             4.0424922214       19.7771392567       16.8650772762  MEMB      14              0.0000000000
      1614        14  PMPE      H2S             3.5092138544       18.0262406244       17.1407442722  MEMB      14              0.0000000000
      1615        14  PMPE      C3              6.8771311305       16.6140018174       14.1230680245  MEMB      14              0.0000000000
      1616        14  PMPE      HX              7.9157238263       16.3359326670       13.8641582883  MEMB      14              0.0000000000
      1617        14  PMPE      HY              6.5971239593       17.4519658730       13.4451289717  MEMB      14              0.0000000000
      1618        14  PMPE      O31             5.9279579128       15.5430392368       13.9620795441  MEMB      14              0.0000000000
      1619        14  PMPE      C31             6.3597511787       14.4245070565       13.3991215280  MEMB      14              0.0000000000
      1620        14  PMPE      O32             7.4675488911       14.2153225488       12.9444024041  MEMB      14              0.0000000000
      1621        14  PMPE      C32             5.2370776474       13.4514817550       13.2782532348  MEMB      14              0.0000000000
      1622        14  PMPE      H2X             4.8116146982       13.1332791649       14.2507099293  MEMB      14              0.0000000000
      1623        14  PMPE      H2Y             5.5120289638       12.5684065140       12.6630860988  MEMB      14              0.0000000000
      1624        14  PMPE      C23             2.9105248294       18.5410787929       15.4858551910  MEMB      14              0.0000000000
      1625        14  PMPE      H3R             3.3393921293       19.5147192517       15.1376251739  MEMB      14              0.0000000000
      1626        14  PMPE      H3S             1.9107414531       18.7411692592       15.9398843489  MEMB      14              0.0000000000
      1627        14  PMPE      C24             2.7669799375       17.3553386233       14.4644551612  MEMB      14              0.0000000000
      1628        14  PMPE      H4R             2.0501997873       16.6709882192       14.9895800759  MEMB      14              0.0000000000
      1629        14  PMPE      H4S             3.7295926212       17.0348233323       14.0537125162  MEMB      14              0.0000000000
      1630        14  PMPE      C25             2.0304846479       17.2935153927       13.0804851445  MEMB      14              0.0000000000
      1631        14  PMPE      H5R             1.0361948484       17.6488935464       13.4495111897  MEMB      14              0.0000000000
      1632        14  PMPE      H5S             1.5195422644       16.3674169238       12.8517442871  MEMB      14              0.0000000000
      1633        14  PMPE      C26             2.8983675604       17.6599859021       11.7319607005  MEMB      14              0.0000000000
      1634        14  PMPE      H6R             3.5432812293       16.9940794883       11.2652279694  MEMB      14              0.0000000000
      1635        14  PMPE      H6S             3.5642739849       18.4853785270       12.0286285159  MEMB      14              0.0000000000
      1636        14  PMPE      C27             2.1951109244       17.8249216954       10.3029422414  MEMB      14              0.0000000000
      1637        14  PMPE      H7R             2.2874331063       18.9659084388       10.2426282101  MEMB      14              0.0000000000
      1638        14  PMPE      H7S             1.2131361729       17.3433890723       10.4082087259  MEMB      14              0.0000000000
      1639        14  PMPE      C28             2.3415821886       18.2606868151        8.8189451620  MEMB      14              0.0000000000
      1640        14  PMPE      H8R             1.5933992271       19.0270376177        8.4465595504  MEMB      14              0.0000000000
      1641        14  PMPE      H8S             2.0813100171       17.3209222737        8.3217612625  MEMB      14              0.0000000000
      1642        14  PMPE      C29             3.6342658538       18.9578640509        8.6753376136  MEMB      14              0.0000000000
      1643        14  PMPE      H9R             4.3052538220       18.8195462520        9.5348135543  MEMB      14              0.0000000000
      1644        14  PMPE      C217            3.6047425393       20.4369617350        8.2449266187  MEMB      14              0.0000000000
      1645        14  PMPE      H17R            4.4114584261       21.0014971019        8.6808423001  MEMB      14              0.0000000000
      1646        14  PMPE      H17S            2.6545606301       20.8549320578        7.9106595907  MEMB      14              0.0000000000
      1647        14  PMPE      C210            4.1301110863       19.3308524666        7.3352083151  MEMB      14              0.0000000000
      1648        14  PMPE      H10R            5.1815031176       19.0814306616        7.2808216379  MEMB      14              0.0000000000
      1649        14  PMPE      C211            3.2853675675       19.1684562333        6.1024581048  MEMB      14              0.0000000000
      1650        14  PMPE      H11R            3.2358245822       20.1318421494        5.5662812780  MEMB      14              0.0000000000
      1651        14  PMPE      H11S            2.3141075106       19.0491136718        6.5354582609  MEMB      14              0.0000000000
      1652        14  PMPE      C212            3.8325439382       18.0570300434        5.1847901318  MEMB      14              0.0000000000
      1653        14  PMPE      H12R            3.7402077982       17.0843139524        5.7116443955  MEMB      14              0.0000000000
      1654        14  PMPE      H12S            4.8888243052       18.3232135199        4.9685969204  MEMB      14              0.0000000000
      1655        14  PMPE      C213            3.2885753412       17.7665918205        3.7888946859  MEMB      14              0.0000000000
      1656        14  PMPE      H13R            2.2538577560       17.6175620888        3.7543039762  MEMB      14              0.0000000000
      1657        14  PMPE      H13S            3.5468590777       16.7473533431        3.4556830011  MEMB      14              0.0000000000
      1658        14  PMPE      C214            3.3839872653       18.8167387591        2.7224159613  MEMB      14              0.0000000000
      1659        14  PMPE      H14R            4.3449295821       19.2555623871        2.5194119998  MEMB      14              0.0000000000
      1660        14  PMPE      H14S            2.7444121872       19.7156644005        2.8326660073  MEMB      14              0.0000000000
      1661        14  PMPE      C215            2.9622447092       18.2243136365        1.4560669249  MEMB      14              0.0000000000
      1662        14  PMPE      H15R            2.0045279802       17.7246985044        1.6836489279  MEMB      14              0.0000000000
      1663        14  PMPE      H15S            3.3481235361       17.2500203035        1.1189952591  MEMB      14              0.0000000000
      1664        14  PMPE      C216            3.0394142051       19.4502850109        0.4839107227  MEMB      14              0.0000000000
      1665        14  PMPE      H16R            2.9695667214       19.0734024575       -0.5372262748  MEMB      14              0.0000000000
      1666        14  PMPE      H16S            2.0697908411       20.0219905201        0.3758875577  MEMB      14              0.0000000000
      1667        14  PMPE      H16T            3.9478357737       19.6664158317       -0.0488155274  MEMB      14              0.0000000000
      1668        14  PMPE      C33             4.1274410935       14.1637616247       12.5829526622  MEMB      14              0.0000000000
      1669        14  PMPE      H3X             3.7037545957       14.9968481210       13.1748774396  MEMB      14              0.0000000000
      1670        14  PMPE      H3Y             3.4368014333       13.2830285450       12.5580520546  MEMB      14              0.0000000000
      1671        14  PMPE      C34             4.4531852015       14.8387761108       11.2697353366  MEMB      14              0.0000000000
      1672        14  PMPE      H4X             4.8850064760       15.8403500575       11.3611725994  MEMB      14              0.0000000000
      1673        14  PMPE      H4Y             3.5360447879       15.1498178847       10.7832176496  MEMB      14              0.0000000000
      1674        14  PMPE      C35             5.4012116988       14.0782046942       10.4163288578  MEMB      14              0.0000000000
      1675        14  PMPE      H5X             5.1898453648       12.9907842923       10.4512937660  MEMB      14              0.0000000000
      1676        14  PMPE      H5Y             6.4239315194       14.2588474412       10.7252748226  MEMB      14              0.0000000000
      1677        14  PMPE      C36             5.4752570428       14.6637372793        9.0517359072  MEMB      14              0.0000000000
      1678        14  PMPE      H6X             5.1948219848       15.7201344987        8.8773661200  MEMB      14              0.0000000000
      1679        14  PMPE      H6Y             4.4900642754       14.2999693095        8.8523757954  MEMB      14              0.0000000000
      1680        14  PMPE      C37             6.6809324938       14.1025421061        8.1603445498  MEMB      14              0.0000000000
      1681        14  PMPE      H7X             6.7411518124       12.9851452051        8.0570676444  MEMB      14              0.0000000000
      1682        14  PMPE      H7Y             7.6060461217       14.5939911186        8.4222842049  MEMB      14              0.0000000000
      1683        14  PMPE      C38             6.7218112145       14.5758676947        6.6871916258  MEMB      14              0.0000000000
      1684        14  PMPE      H8X             6.7041999364       15.5952751977        6.3682699447  MEMB      14              0.0000000000
      1685        14  PMPE      H8Y             5.7097850622       14.8718195285        7.0299543501  MEMB      14              0.0000000000
      1686        14  PMPE      C39             7.3414850509       13.6662080592        5.4050380637  MEMB      14              0.0000000000
      1687        14  PMPE      H9X             7.0384580749       12.6010016665        5.7624646578  MEMB      14              0.0000000000
      1688        14  PMPE      H9Y             8.4056812623       13.6130949466        5.3369420998  MEMB      14              0.0000000000
      1689        14  PMPE      C310            7.0487258972       13.9908347858        3.6632105795  MEMB      14              0.0000000000
      1690        14  PMPE      H10X            6.6269036200       13.0351118798        3.2982534497  MEMB      14              0.0000000000
      1691        14  PMPE      H10Y            6.9033520280       15.0430668728        3.4527976317  MEMB      14              0.0000000000
      1692        14  PMPE      C311            5.6450045016       14.4772234975        2.7265739468  MEMB      14              0.0000000000
      1693        14  PMPE      H11X            4.8435639114       15.1884081476        3.0612033241  MEMB      14              0.0000000000
      1694        14  PMPE      H11Y            4.7373581476       14.0082777174        2.9737267018  MEMB      14              0.0000000000
      1695        14  PMPE      C312            5.3753174756       13.8607879065        1.4523856070  MEMB      14              0.0000000000
      1696        14  PMPE      H12X            5.8402709406       12.9111637432        1.1354448831  MEMB      14              0.0000000000
      1697        14  PMPE      H12Y            5.5885133552       14.7766472849        0.9178742275  MEMB      14              0.0000000000
      1698        14  PMPE      C313            3.9803258266       13.6885485213        1.1870009578  MEMB      14              0.0000000000
      1699        14  PMPE      H13X            3.2581177396       14.4151892457        1.7619163358  MEMB      14              0.0000000000
      1700        14  PMPE      H13Y            3.8041548338       12.5595263845        1.2543287230  MEMB      14              0.0000000000
      1701        14  PMPE      C314            3.9942189806       13.6113981665       -0.1823235207  MEMB      14              0.0000000000
      1702        14  PMPE      H14X            2.9893548057       13.6169727124        0.2254592848  MEMB      14              0.0000000000
      1703        14  PMPE      H14Y            4.1098180298       12.6117925820       -0.6397670928  MEMB      14              0.0000000000
      1704        14  PMPE      C315            4.2906880082       14.8884185137       -1.0047604884  MEMB      14              0.0000000000
      1705        14  PMPE      H15X            5.2430562199       14.5002980415       -0.8078467094  MEMB      14              0.0000000000
      1706        14  PMPE      H15Y            4.0274955836       15.8719768041       -0.5513369550  MEMB      14              0.0000000000
      1707        14  PMPE      C316            4.1189783270       15.0213190275       -2.5335873635  MEMB      14              0.0000000000
      1708        14  PMPE      H16X            3.8926572806       16.0270985450       -2.9754628057  MEMB      14              0.0000000000
      1709        14  PMPE      H16Y            3.4070856613       14.4546999055       -3.0447380718  MEMB      14              0.0000000000
      1710        14  PMPE      H16Z            4.2195283448       14.1027219298       -3.1492995687  MEMB      14              0.0000000000
      1711        15  OYPE      N             -13.9366888583       -7.8691431603       21.8125280991  MEMB      15              0.0000000000
      1712        15  OYPE      HN1           -12.9023671563       -7.7721748686       21.7527502509  MEMB      15              0.0000000000
      1713        15  OYPE      HN2           -14.1763415918       -8.1625401386       22.7863536421  MEMB      15              0.0000000000
      1714        15  OYPE      HN3           -14.2901977531       -8.5215438784       21.0805808292  MEMB      15              0.0000000000
      1715        15  OYPE      C12           -14.6047097583       -6.5427931319       21.5805003106  MEMB      15              0.0000000000
      1716        15  OYPE      H12A          -14.3646975267       -5.9231471904       22.4693512151  MEMB      15              0.0000000000
      1717        15  OYPE      H12B          -15.7021159463       -6.7170973169       21.5386776682  MEMB      15              0.0000000000
      1718        15  OYPE      C11           -14.1357701639       -5.8648550385       20.2806671818  MEMB      15              0.0000000000
      1719        15  OYPE      H11A          -13.0234580542       -5.7881364510       20.2355435442  MEMB      15              0.0000000000
      1720        15  OYPE      H11B          -14.5133278174       -4.8145165506       20.3459902653  MEMB      15              0.0000000000
      1721        15  OYPE      P             -14.2390914026       -6.0327990233       17.6585547597  MEMB      15              0.0000000000
      1722        15  OYPE      O13           -13.4917495933       -7.1723362047       17.0993675413  MEMB      15              0.0000000000
      1723        15  OYPE      O14           -13.5386373947       -4.7445929143       17.8163832529  MEMB      15              0.0000000000
      1724        15  OYPE      O11           -15.5875195578       -5.7921537503       16.8884881108  MEMB      15              0.0000000000
      1725        15  OYPE      O12           -14.6725328742       -6.5298257734       19.1268634102  MEMB      15              0.0000000000
      1726        15  OYPE      C1            -16.6797601273       -6.6628035630       17.1449591332  MEMB      15              0.0000000000
      1727        15  OYPE      HA            -17.1410460522       -6.4070832151       18.1246802572  MEMB      15              0.0000000000
      1728        15  OYPE      HB            -16.3452716027       -7.7218157332       17.1971959972  MEMB      15              0.0000000000
      1729        15  OYPE      C2            -17.7581418130       -6.5163523525       16.0423568683  MEMB      15              0.0000000000
      1730        15  OYPE      HS            -18.5774254821       -7.2334996501       16.2533978325  MEMB      15              0.0000000000
      1731        15  OYPE      O21           -17.2434006418       -6.7373309671       14.7183889555  MEMB      15              0.0000000000
      1732        15  OYPE      C21           -16.6742713248       -7.8840146451       14.4244885429  MEMB      15              0.0000000000
      1733        15  OYPE      O22           -16.6581315936       -8.8924911832       15.1095986483  MEMB      15              0.0000000000
      1734        15  OYPE      C22           -16.1219285048       -7.7914947071       12.9892801235  MEMB      15              0.0000000000
      1735        15  OYPE      H2R           -15.0233793276       -7.6717390518       13.0600314651  MEMB      15              0.0000000000
      1736        15  OYPE      H2S           -16.5570267372       -6.9078999391       12.4798190427  MEMB      15              0.0000000000
      1737        15  OYPE      C3            -18.4189293961       -5.1003355335       16.1262946782  MEMB      15              0.0000000000
      1738        15  OYPE      HX            -18.5765460482       -4.9009020287       17.1961132332  MEMB      15              0.0000000000
      1739        15  OYPE      HY            -19.4014079532       -5.0393744270       15.6227163822  MEMB      15              0.0000000000
      1740        15  OYPE      O31           -17.6131597945       -4.0068504990       15.7811942329  MEMB      15              0.0000000000
      1741        15  OYPE      C31           -17.3838699978       -3.8078106462       14.5787136597  MEMB      15              0.0000000000
      1742        15  OYPE      O32           -17.6745114672       -4.4302241207       13.5722280403  MEMB      15              0.0000000000
      1743        15  OYPE      C32           -16.6163288552       -2.5872320763       14.6074999611  MEMB      15              0.0000000000
      1744        15  OYPE      H2X           -17.1836417791       -1.9057513618       13.9655003101  MEMB      15              0.0000000000
      1745        15  OYPE      H2Y           -16.7308505810       -1.8982930076       15.4544993766  MEMB      15              0.0000000000
      1746        15  OYPE      C23           -16.3864104706       -9.0549435142       12.1641810442  MEMB      15              0.0000000000
      1747        15  OYPE      H3R           -17.4720387140       -9.3060526701       12.1374103637  MEMB      15              0.0000000000
      1748        15  OYPE      H3S           -15.8524309071       -9.8944311408       12.6715472664  MEMB      15              0.0000000000
      1749        15  OYPE      C24           -15.9628674009       -8.9801882641       10.7039569630  MEMB      15              0.0000000000
      1750        15  OYPE      H4R           -14.8842676055       -8.7465095205       10.5341960140  MEMB      15              0.0000000000
      1751        15  OYPE      H4S           -16.5981959327       -8.2806325408       10.1164633643  MEMB      15              0.0000000000
      1752        15  OYPE      C25           -16.1783689806      -10.3601392266       10.1818451294  MEMB      15              0.0000000000
      1753        15  OYPE      H5R           -17.2578558263      -10.6089579310       10.0594766762  MEMB      15              0.0000000000
      1754        15  OYPE      H5S           -15.7249601477      -11.0408340885       10.9348003521  MEMB      15              0.0000000000
      1755        15  OYPE      C26           -15.4578866625      -10.5629811883        8.9027599112  MEMB      15              0.0000000000
      1756        15  OYPE      H6R           -15.7871910102      -11.5864800712        8.6531134613  MEMB      15              0.0000000000
      1757        15  OYPE      H6S           -14.3624911532      -10.6791731896        9.0094948706  MEMB      15              0.0000000000
      1758        15  OYPE      C27           -15.8552195332       -9.5298296666        7.7919578657  MEMB      15              0.0000000000
      1759        15  OYPE      H7R           -14.8711536009       -9.5243264216        7.1793792053  MEMB      15              0.0000000000
      1760        15  OYPE      H7S           -15.8697670276       -8.5106386543        8.0933055462  MEMB      15              0.0000000000
      1761        15  OYPE      C28           -17.3415132419       -9.5067489336        7.1790316980  MEMB      15              0.0000000000
      1762        15  OYPE      H8R           -17.4543992615       -8.7033153748        6.4135982779  MEMB      15              0.0000000000
      1763        15  OYPE      H8S           -18.2203544881       -9.8113981065        7.7639192880  MEMB      15              0.0000000000
      1764        15  OYPE      C29           -16.7821349326      -10.6601947039        6.8160535103  MEMB      15              0.0000000000
      1765        15  OYPE      H9R           -17.0537373987      -11.5176210057        7.3673292019  MEMB      15              0.0000000000
      1766        15  OYPE      C210          -16.4117015524      -10.7436880833        5.7089721486  MEMB      15              0.0000000000
      1767        15  OYPE      H10R          -15.7183248745      -11.4499798378        5.3796564445  MEMB      15              0.0000000000
      1768        15  OYPE      C211          -16.4566293807       -9.8970368720        4.7798038857  MEMB      15              0.0000000000
      1769        15  OYPE      H11R          -17.1024696969       -9.1658278854        4.3307579629  MEMB      15              0.0000000000
      1770        15  OYPE      H11S          -17.4075959531      -10.4685133155        4.2304196318  MEMB      15              0.0000000000
      1771        15  OYPE      C212          -14.6296247062      -10.3263360967        4.5566900044  MEMB      15              0.0000000000
      1772        15  OYPE      H12R          -14.0953018901      -10.2411032319        5.5062267892  MEMB      15              0.0000000000
      1773        15  OYPE      H12S          -14.3109774058       -9.6080427348        3.8318484162  MEMB      15              0.0000000000
      1774        15  OYPE      C213          -13.7803322477      -11.7965545739        3.8328732931  MEMB      15              0.0000000000
      1775        15  OYPE      H13R          -13.8974006189      -12.0075609968        2.7200765574  MEMB      15              0.0000000000
      1776        15  OYPE      H13S          -13.9914362229      -12.8622768272        3.9804669469  MEMB      15              0.0000000000
      1777        15  OYPE      C214          -12.3185151838      -11.8989923060        3.9436378694  MEMB      15              0.0000000000
      1778        15  OYPE      H14R          -12.0629638842      -11.5756445795        4.9306409911  MEMB      15              0.0000000000
      1779        15  OYPE      H14S          -12.7770624490      -10.9362702925        3.9188874716  MEMB      15              0.0000000000
      1780        15  OYPE      C215          -11.2494612918      -12.2677869203        2.7553284763  MEMB      15              0.0000000000
      1781        15  OYPE      H15R          -11.2635499334      -12.0914616354        1.6358988347  MEMB      15              0.0000000000
      1782        15  OYPE      H15S          -11.4258995531      -13.3155390507        2.5984260710  MEMB      15              0.0000000000
      1783        15  OYPE      C216           -9.8290028176      -11.7360826557        2.8976332677  MEMB      15              0.0000000000
      1784        15  OYPE      H16R           -9.5837667856      -11.8250129957        3.9441597940  MEMB      15              0.0000000000
      1785        15  OYPE      H16S           -9.6062301557      -10.6781717481        2.5474331497  MEMB      15              0.0000000000
      1786        15  OYPE      H16T           -9.2101034266      -12.3658824090        2.2788945309  MEMB      15              0.0000000000
      1787        15  OYPE      C33           -15.1737963413       -3.1567482797       14.4030062335  MEMB      15              0.0000000000
      1788        15  OYPE      H3X           -15.0095582892       -3.7994621336       15.2929332336  MEMB      15              0.0000000000
      1789        15  OYPE      H3Y           -14.4330262005       -2.3358320070       14.3974874065  MEMB      15              0.0000000000
      1790        15  OYPE      C34           -14.7586883087       -4.0908068307       13.2289092845  MEMB      15              0.0000000000
      1791        15  OYPE      H4X           -15.4511582699       -4.9168731554       12.9608457347  MEMB      15              0.0000000000
      1792        15  OYPE      H4Y           -14.6425768845       -3.5775089804       12.2410990584  MEMB      15              0.0000000000
      1793        15  OYPE      C35           -13.3495599365       -4.4281170618       13.3111959821  MEMB      15              0.0000000000
      1794        15  OYPE      H5X           -13.2147056598       -5.2561627770       14.0352103947  MEMB      15              0.0000000000
      1795        15  OYPE      H5Y           -12.7154808991       -3.5372859058       13.5603235349  MEMB      15              0.0000000000
      1796        15  OYPE      C36           -13.0214200678       -4.8531477043       11.9155209462  MEMB      15              0.0000000000
      1797        15  OYPE      H6X           -12.4804798739       -4.0145689659       11.4080382127  MEMB      15              0.0000000000
      1798        15  OYPE      H6Y           -12.3894701022       -5.6598414202       12.2717776922  MEMB      15              0.0000000000
      1799        15  OYPE      C37           -14.0624203950       -5.5339184235       11.0188312794  MEMB      15              0.0000000000
      1800        15  OYPE      H7X           -14.4729596302       -6.4743841889       11.4696580316  MEMB      15              0.0000000000
      1801        15  OYPE      H7Y           -14.7100251096       -4.8203108081       10.5126255832  MEMB      15              0.0000000000
      1802        15  OYPE      C38           -13.7450939202       -5.8037377901        9.5984080082  MEMB      15              0.0000000000
      1803        15  OYPE      H8X           -13.3763188442       -6.8811285888        9.9590400259  MEMB      15              0.0000000000
      1804        15  OYPE      H8Y           -14.2226968793       -6.7533435390        9.1385322534  MEMB      15              0.0000000000
      1805        15  OYPE      C39           -12.7755215889       -4.6186538567        8.7722266655  MEMB      15              0.0000000000
      1806        15  OYPE      H9X           -11.6341901286       -4.6301961404        8.7847755077  MEMB      15              0.0000000000
      1807        15  OYPE      C310          -12.8300462439       -4.1360397025        7.5284170116  MEMB      15              0.0000000000
      1808        15  OYPE      H10X          -11.8590011491       -4.2401065693        6.9172928782  MEMB      15              0.0000000000
      1809        15  OYPE      C311          -13.9861394320       -4.7147879102        6.8613439514  MEMB      15              0.0000000000
      1810        15  OYPE      H11X          -14.7326888484       -4.9491852846        7.6543386571  MEMB      15              0.0000000000
      1811        15  OYPE      H11Y          -14.3191092811       -3.8070431101        6.3664493916  MEMB      15              0.0000000000
      1812        15  OYPE      C312          -14.1538068058       -5.9569605403        5.9905931702  MEMB      15              0.0000000000
      1813        15  OYPE      H12X          -14.1477802345       -6.8760445187        6.5807073794  MEMB      15              0.0000000000
      1814        15  OYPE      H12Y          -13.4972004552       -5.9812133005        5.0968988776  MEMB      15              0.0000000000
      1815        15  OYPE      C313          -15.5893062791       -6.2924550444        5.6968072941  MEMB      15              0.0000000000
      1816        15  OYPE      H13X          -15.6432254613       -7.2352597432        5.1038148902  MEMB      15              0.0000000000
      1817        15  OYPE      H13Y          -16.2062937195       -6.3901337134        6.6173648472  MEMB      15              0.0000000000
      1818        15  OYPE      C314          -16.1038707751       -5.2400072471        4.8569973329  MEMB      15              0.0000000000
      1819        15  OYPE      H14X          -15.4135442132       -5.2718958013        4.0096826376  MEMB      15              0.0000000000
      1820        15  OYPE      H14Y          -16.0480256543       -4.2459886517        5.3706563805  MEMB      15              0.0000000000
      1821        15  OYPE      C315          -17.4907627428       -5.5788173319        4.4500278672  MEMB      15              0.0000000000
      1822        15  OYPE      H15X          -17.7895084533       -4.6893954798        3.9147671372  MEMB      15              0.0000000000
      1823        15  OYPE      H15Y          -18.1092324047       -5.8286744560        5.3400944169  MEMB      15              0.0000000000
      1824        15  OYPE      C316          -17.7510865906       -6.5527506234        3.3658487239  MEMB      15              0.0000000000
      1825        15  OYPE      H16X          -18.8170468109       -6.4550522199        3.0639990182  MEMB      15              0.0000000000
      1826        15  OYPE      H16Y          -17.6941871409       -7.5371324495        3.8257239648  MEMB      15              0.0000000000
      1827        15  OYPE      C317          -16.7833453597       -6.5023049970        2.2092445288  MEMB      15              0.0000000000
      1828        15  OYPE      H17X          -15.7739790527       -6.1263894832        2.3674136528  MEMB      15              0.0000000000
      1829        15  OYPE      H17Y          -16.7903815408       -5.8352151185        1.3923096990  MEMB      15              0.0000000000
      1830        15  OYPE      C318          -16.9824290678       -7.7806293407        1.5357459445  MEMB      15              0.0000000000
      1831        15  OYPE      H18X          -18.0136486031       -8.2044038736        1.5330187856  MEMB      15              0.0000000000
      1832        15  OYPE      H18Y          -16.5721208100       -7.9715985453        0.5682938054  MEMB      15              0.0000000000
      1833        15  OYPE      H18Z          -16.2154223421       -8.3563054333        1.9558353705  MEMB      15              0.0000000000
      1834        16  PYPG      C13             9.9491056739       11.5691987306       19.5110187016  MEMB      16              0.0000000000
      1835        16  PYPG      H13A            9.3214882424       10.7404737294       19.1089820551  MEMB      16              0.0000000000
      1836        16  PYPG      H13B           10.5378311943       11.1790534527       20.3685948800  MEMB      16              0.0000000000
      1837        16  PYPG      OC3             9.0671959035       12.5897371667       19.9861823350  MEMB      16              0.0000000000
      1838        16  PYPG      HO3             9.5287687991       13.4082804822       20.1138096339  MEMB      16              0.0000000000
      1839        16  PYPG      C12            10.9580683940       12.0588634383       18.4362509244  MEMB      16              0.0000000000
      1840        16  PYPG      H12A           11.5065046967       12.9370188712       18.8342413160  MEMB      16              0.0000000000
      1841        16  PYPG      OC2            10.2722687811       12.4808957919       17.2598838213  MEMB      16              0.0000000000
      1842        16  PYPG      HO2            10.9473569427       12.6326383444       16.5943393971  MEMB      16              0.0000000000
      1843        16  PYPG      C11            11.9985992067       10.9617274432       18.0719824109  MEMB      16              0.0000000000
      1844        16  PYPG      H11A           12.6342052563       11.3336219280       17.2330503757  MEMB      16              0.0000000000
      1845        16  PYPG      H11B           11.4089159960       10.0945538704       17.7024059358  MEMB      16              0.0000000000
      1846        16  PYPG      P              14.2144672381       10.9859844504       19.5475851634  MEMB      16              0.0000000000
      1847        16  PYPG      O13            15.0739616966        9.9020094334       20.1134956892  MEMB      16              0.0000000000
      1848        16  PYPG      O14            14.1402452669       12.3181098269       20.2391846545  MEMB      16              0.0000000000
      1849        16  PYPG      O11            14.7416705447       11.2461395833       18.1268565647  MEMB      16              0.0000000000
      1850        16  PYPG      O12            12.7617915090       10.5096627284       19.1979599226  MEMB      16              0.0000000000
      1851        16  PYPG      C1             15.7497795264       12.2226489398       18.1203353223  MEMB      16              0.0000000000
      1852        16  PYPG      HA             16.4658032759       12.3266376135       18.9794009466  MEMB      16              0.0000000000
      1853        16  PYPG      HB             15.2042284073       13.1929436567       18.2315550939  MEMB      16              0.0000000000
      1854        16  PYPG      C2             16.5784538608       12.1428781238       16.8269837645  MEMB      16              0.0000000000
      1855        16  PYPG      HS             17.1492929789       13.0891290418       16.9695806939  MEMB      16              0.0000000000
      1856        16  PYPG      O21            15.6986877087       11.7985830828       15.5930164700  MEMB      16              0.0000000000
      1857        16  PYPG      C21            14.9064963139       12.4645306280       14.6161666832  MEMB      16              0.0000000000
      1858        16  PYPG      O22            14.8619259787       13.5914600178       14.2153690099  MEMB      16              0.0000000000
      1859        16  PYPG      C22            13.9660314039       11.7650363415       13.7743399216  MEMB      16              0.0000000000
      1860        16  PYPG      H2R            13.6915327498       10.8702412127       14.3222054656  MEMB      16              0.0000000000
      1861        16  PYPG      H2S            14.5858671302       11.6614012387       12.8402131780  MEMB      16              0.0000000000
      1862        16  PYPG      C3             17.8036735131       11.2797719269       16.8263677466  MEMB      16              0.0000000000
      1863        16  PYPG      HX             18.3554951630       11.7517562643       17.6843370877  MEMB      16              0.0000000000
      1864        16  PYPG      HY             18.4990169223       11.4284121010       15.9545014733  MEMB      16              0.0000000000
      1865        16  PYPG      O31            17.3804423216        9.9764748947       17.0799831593  MEMB      16              0.0000000000
      1866        16  PYPG      C31            17.0326889826        9.3732020395       15.9575441600  MEMB      16              0.0000000000
      1867        16  PYPG      O32            17.3237525441        9.7269704919       14.8240068601  MEMB      16              0.0000000000
      1868        16  PYPG      C32            16.0580864389        8.2876580578       16.3800867169  MEMB      16              0.0000000000
      1869        16  PYPG      H2X            16.6011363133        7.7026029829       17.1608630280  MEMB      16              0.0000000000
      1870        16  PYPG      H2Y            15.2027533989        8.7872261002       16.8742491315  MEMB      16              0.0000000000
      1871        16  PYPG      C23            12.8176140514       12.8057582029       13.4915545022  MEMB      16              0.0000000000
      1872        16  PYPG      H3R            13.1214011651       13.4504156146       12.6399462718  MEMB      16              0.0000000000
      1873        16  PYPG      H3S            12.6003931319       13.5218147882       14.3364563177  MEMB      16              0.0000000000
      1874        16  PYPG      C24            11.4780055765       12.1899271740       13.1630389880  MEMB      16              0.0000000000
      1875        16  PYPG      H4R            10.6995518932       12.9008561844       13.5307303902  MEMB      16              0.0000000000
      1876        16  PYPG      H4S            11.3785814278       11.2500662130       13.7419254429  MEMB      16              0.0000000000
      1877        16  PYPG      C25            11.2031580589       12.1383119363       11.6539831108  MEMB      16              0.0000000000
      1878        16  PYPG      H5R            11.2544422068       13.1933659324       11.2959482211  MEMB      16              0.0000000000
      1879        16  PYPG      H5S            10.1463669953       11.8342063207       11.5214545037  MEMB      16              0.0000000000
      1880        16  PYPG      C26            12.1546324029       11.2500618831       10.8299607532  MEMB      16              0.0000000000
      1881        16  PYPG      H6R            12.4754428481       10.3762281225       11.4366959724  MEMB      16              0.0000000000
      1882        16  PYPG      H6S            13.0445921754       11.8280175950       10.5285377608  MEMB      16              0.0000000000
      1883        16  PYPG      C27            11.5879510989       10.7180322257        9.5223444370  MEMB      16              0.0000000000
      1884        16  PYPG      H7R            12.3555032267       10.3117955471        8.8738603167  MEMB      16              0.0000000000
      1885        16  PYPG      H7S            11.0127588816       11.5051431537        8.9803973300  MEMB      16              0.0000000000
      1886        16  PYPG      C28            10.7359666547        9.5395156072        9.7574358885  MEMB      16              0.0000000000
      1887        16  PYPG      H8R            10.0634742170       10.0025114046       10.4999265477  MEMB      16              0.0000000000
      1888        16  PYPG      H8S            11.1130828961        8.6324311457       10.2720041989  MEMB      16              0.0000000000
      1889        16  PYPG      C29            10.0431175055        9.2631818203        8.4666952732  MEMB      16              0.0000000000
      1890        16  PYPG      H9R             9.2604906331       10.0006130312        8.3392553003  MEMB      16              0.0000000000
      1891        16  PYPG      C210           10.0899154045        8.1285905632        7.7439891160  MEMB      16              0.0000000000
      1892        16  PYPG      H10R            9.1174647075        7.7575256366        7.3496073002  MEMB      16              0.0000000000
      1893        16  PYPG      C211           10.9575266453        6.9916006074        8.2118470111  MEMB      16              0.0000000000
      1894        16  PYPG      H11R           10.4665121720        6.1448198776        8.7456125266  MEMB      16              0.0000000000
      1895        16  PYPG      H11S           11.7640298750        7.3880375754        8.8656389410  MEMB      16              0.0000000000
      1896        16  PYPG      C212           11.6375383777        6.4830651957        6.9569500373  MEMB      16              0.0000000000
      1897        16  PYPG      H12R           10.9472938723        5.8266286842        6.3853737281  MEMB      16              0.0000000000
      1898        16  PYPG      H12S           12.5107992916        5.8837166523        7.2937521879  MEMB      16              0.0000000000
      1899        16  PYPG      C213           12.1180237359        7.6670659120        6.1146370448  MEMB      16              0.0000000000
      1900        16  PYPG      H13R           12.5565593188        8.3932330143        6.8406273297  MEMB      16              0.0000000000
      1901        16  PYPG      H13S           11.2825986176        8.1877561434        5.5962528597  MEMB      16              0.0000000000
      1902        16  PYPG      C214           13.1748620754        7.3193419405        5.0989130428  MEMB      16              0.0000000000
      1903        16  PYPG      H14R           13.4575115785        8.2697459875        4.5895766584  MEMB      16              0.0000000000
      1904        16  PYPG      H14S           14.0527136149        6.9562365079        5.6766644297  MEMB      16              0.0000000000
      1905        16  PYPG      C215           12.7218891298        6.3117670428        4.0378359830  MEMB      16              0.0000000000
      1906        16  PYPG      H15R           11.7837779436        6.6668863603        3.5544317272  MEMB      16              0.0000000000
      1907        16  PYPG      H15S           12.4638087926        5.3338824151        4.5005701932  MEMB      16              0.0000000000
      1908        16  PYPG      C216           13.8004879796        6.1479592965        2.9689302835  MEMB      16              0.0000000000
      1909        16  PYPG      H16R           13.3811387923        6.2279553802        1.9455030219  MEMB      16              0.0000000000
      1910        16  PYPG      H16S           14.2904056245        5.1675933208        3.0252983844  MEMB      16              0.0000000000
      1911        16  PYPG      H16T           14.5923191030        6.9137441081        3.1220629575  MEMB      16              0.0000000000
      1912        16  PYPG      C33            15.5971489883        7.3299878907       15.2583675251  MEMB      16              0.0000000000
      1913        16  PYPG      H3X            15.3672087466        6.3808323726       15.8027073919  MEMB      16              0.0000000000
      1914        16  PYPG      H3Y            16.4170365058        7.1102713226       14.5469936557  MEMB      16              0.0000000000
      1915        16  PYPG      C34            14.3096507885        7.6903846682       14.4921392555  MEMB      16              0.0000000000
      1916        16  PYPG      H4X            13.6689232786        8.3463139234       15.1236704539  MEMB      16              0.0000000000
      1917        16  PYPG      H4Y            13.7283877908        6.7482994868       14.3745654842  MEMB      16              0.0000000000
      1918        16  PYPG      C35            14.5144456972        8.3744393997       13.1215904676  MEMB      16              0.0000000000
      1919        16  PYPG      H5X            15.2264463938        9.2236929812       13.1926598781  MEMB      16              0.0000000000
      1920        16  PYPG      H5Y            13.5258277364        8.7886079955       12.8181852439  MEMB      16              0.0000000000
      1921        16  PYPG      C36            14.9776451688        7.5311568794       11.9311277506  MEMB      16              0.0000000000
      1922        16  PYPG      H6X            14.3074775544        6.6400682745       11.8594034434  MEMB      16              0.0000000000
      1923        16  PYPG      H6Y            16.0252045178        7.1747655165       12.0600972520  MEMB      16              0.0000000000
      1924        16  PYPG      C37            14.8552922388        8.3991867883       10.6618830838  MEMB      16              0.0000000000
      1925        16  PYPG      H7X            14.7166045045        7.7100514859        9.7895623081  MEMB      16              0.0000000000
      1926        16  PYPG      H7Y            13.8812523239        8.9205461609       10.6594414509  MEMB      16              0.0000000000
      1927        16  PYPG      C38            15.9264960041        9.5375623948       10.4798507927  MEMB      16              0.0000000000
      1928        16  PYPG      H8X            16.9683811823        9.3007113282       10.1762304107  MEMB      16              0.0000000000
      1929        16  PYPG      H8Y            16.3506217527        9.9388995209       11.3996713907  MEMB      16              0.0000000000
      1930        16  PYPG      C39            15.4442672469       10.5624709016        9.4460989744  MEMB      16              0.0000000000
      1931        16  PYPG      H9X            16.3689456618       11.1061005583        9.1005718717  MEMB      16              0.0000000000
      1932        16  PYPG      H9Y            14.9180953914       11.2705121361       10.0981654868  MEMB      16              0.0000000000
      1933        16  PYPG      C310           14.5168606381       10.0734356101        8.2246980583  MEMB      16              0.0000000000
      1934        16  PYPG      H10X           13.8727151486        9.2190684449        8.2814010446  MEMB      16              0.0000000000
      1935        16  PYPG      H10Y           14.9385388636        9.8169315553        7.2295612517  MEMB      16              0.0000000000
      1936        16  PYPG      C311           14.0331749561       11.0868547050        7.3250296630  MEMB      16              0.0000000000
      1937        16  PYPG      H11X           15.1083473470       11.4488741095        7.5076109314  MEMB      16              0.0000000000
      1938        16  PYPG      H11Y           13.2957386937       11.7591261152        7.7660390767  MEMB      16              0.0000000000
      1939        16  PYPG      C312           13.6041557011       10.7513496192        5.8735279447  MEMB      16              0.0000000000
      1940        16  PYPG      H12X           14.3878063973       10.2101447629        5.2978720684  MEMB      16              0.0000000000
      1941        16  PYPG      H12Y           12.6799338179       10.1767202411        6.0181453950  MEMB      16              0.0000000000
      1942        16  PYPG      C313           13.1026377870       11.9164090824        5.0272637373  MEMB      16              0.0000000000
      1943        16  PYPG      H13X           12.3855571053       12.5663413824        5.5611920513  MEMB      16              0.0000000000
      1944        16  PYPG      H13Y           13.9398646959       12.5078936720        4.8553889462  MEMB      16              0.0000000000
      1945        16  PYPG      C314           12.7812738479       11.7209319809        3.5670447408  MEMB      16              0.0000000000
      1946        16  PYPG      H14X           11.9922767932       10.9666411502        3.7002630147  MEMB      16              0.0000000000
      1947        16  PYPG      H14Y           12.3865840567       12.6926796403        3.1810048285  MEMB      16              0.0000000000
      1948        16  PYPG      C315           13.9010068796       11.1649965587        2.6475309468  MEMB      16              0.0000000000
      1949        16  PYPG      H15X           14.2809717504       10.2310584775        3.1143804357  MEMB      16              0.0000000000
      1950        16  PYPG      H15Y           13.4002097087       10.9395929774        1.6997504230  MEMB      16              0.0000000000
      1951        16  PYPG      C316           15.0600271388       12.0419924125        2.1689064246  MEMB      16              0.0000000000
      1952        16  PYPG      H16X           15.8458638733       11.6011668979        1.5319363118  MEMB      16              0.0000000000
      1953        16  PYPG      H16Y           15.7442877596       12.1568141500        2.9736296677  MEMB      16              0.0000000000
      1954        16  PYPG      H16Z           14.7350377969       13.0494288378        1.8250644541  MEMB      16              0.0000000000
      1955        17  PMPE      N             -10.5416099195       16.7008882594       21.4302724193  MEMB      17              0.0000000000
      1956        17  PMPE      HN1            -9.8528885126       16.0197899845       21.8692800300  MEMB      17              0.0000000000
      1957        17  PMPE      HN2            -9.9062299140       17.3839733836       20.9728784981  MEMB      17              0.0000000000
      1958        17  PMPE      HN3           -11.1404900143       17.2338598474       22.0933541934  MEMB      17              0.0000000000
      1959        17  PMPE      C12           -11.3999074408       16.0266162383       20.3735167712  MEMB      17              0.0000000000
      1960        17  PMPE      H12A          -11.7370426407       16.8306549959       19.6875505395  MEMB      17              0.0000000000
      1961        17  PMPE      H12B          -12.2566884860       15.5309519587       20.8697228939  MEMB      17              0.0000000000
      1962        17  PMPE      C11           -10.6689610003       14.9864425172       19.5227689223  MEMB      17              0.0000000000
      1963        17  PMPE      H11A          -11.3517982745       14.6176040880       18.7166870621  MEMB      17              0.0000000000
      1964        17  PMPE      H11B          -10.3847926180       14.1166160774       20.1654185423  MEMB      17              0.0000000000
      1965        17  PMPE      P              -8.5053292355       14.6810220098       18.1431020200  MEMB      17              0.0000000000
      1966        17  PMPE      O13            -9.1620939739       13.4300557645       17.7108674879  MEMB      17              0.0000000000
      1967        17  PMPE      O14            -7.2787953626       14.6496817022       18.9485776101  MEMB      17              0.0000000000
      1968        17  PMPE      O11            -8.1816951056       15.5506357343       16.8543564060  MEMB      17              0.0000000000
      1969        17  PMPE      O12            -9.5408039970       15.6122630651       18.9339583432  MEMB      17              0.0000000000
      1970        17  PMPE      C1             -7.4391444996       16.7678723998       16.9409899543  MEMB      17              0.0000000000
      1971        17  PMPE      HA             -6.4253540434       16.5790791100       17.3596152998  MEMB      17              0.0000000000
      1972        17  PMPE      HB             -7.9760024420       17.5193819925       17.5627947301  MEMB      17              0.0000000000
      1973        17  PMPE      C2             -7.2416401421       17.4498359196       15.5608839229  MEMB      17              0.0000000000
      1974        17  PMPE      HS             -8.2659390059       17.7350438337       15.2128392856  MEMB      17              0.0000000000
      1975        17  PMPE      O21            -6.5596694502       16.5426260038       14.6765476682  MEMB      17              0.0000000000
      1976        17  PMPE      C21            -7.0773464550       16.3576183572       13.4805777098  MEMB      17              0.0000000000
      1977        17  PMPE      O22            -8.0775742279       16.8921083573       13.0380936739  MEMB      17              0.0000000000
      1978        17  PMPE      C22            -6.1892177916       15.3590442429       12.7307531425  MEMB      17              0.0000000000
      1979        17  PMPE      H2R            -6.8095132092       14.5086959868       12.3883839607  MEMB      17              0.0000000000
      1980        17  PMPE      H2S            -5.3946498930       14.9908108786       13.4146061349  MEMB      17              0.0000000000
      1981        17  PMPE      C3             -6.3514348968       18.7148051873       15.7370504018  MEMB      17              0.0000000000
      1982        17  PMPE      HX             -5.3364258534       18.3690410443       16.0140713633  MEMB      17              0.0000000000
      1983        17  PMPE      HY             -6.7147600256       19.3567233109       16.5735691387  MEMB      17              0.0000000000
      1984        17  PMPE      O31            -6.1940379487       19.4340252169       14.5145769816  MEMB      17              0.0000000000
      1985        17  PMPE      C31            -7.2367265927       20.1485406066       14.2067128572  MEMB      17              0.0000000000
      1986        17  PMPE      O32            -8.1665893827       20.4236678557       14.9340830835  MEMB      17              0.0000000000
      1987        17  PMPE      C32            -6.9854307128       20.6371582176       12.8308219636  MEMB      17              0.0000000000
      1988        17  PMPE      H2X            -6.6041865345       19.7744899515       12.2332595922  MEMB      17              0.0000000000
      1989        17  PMPE      H2Y            -6.3247111014       21.5159561873       12.8776876476  MEMB      17              0.0000000000
      1990        17  PMPE      C23            -5.4985887448       15.9109254159       11.4813665498  MEMB      17              0.0000000000
      1991        17  PMPE      H3R            -6.2333801736       16.2778462941       10.7286027693  MEMB      17              0.0000000000
      1992        17  PMPE      H3S            -4.9692177623       15.0365840163       11.0275248504  MEMB      17              0.0000000000
      1993        17  PMPE      C24            -4.4810401871       16.9952442172       11.8161363725  MEMB      17              0.0000000000
      1994        17  PMPE      H4R            -3.6059967961       16.5628434044       12.3545630502  MEMB      17              0.0000000000
      1995        17  PMPE      H4S            -4.9318500453       17.7551887806       12.4903767977  MEMB      17              0.0000000000
      1996        17  PMPE      C25            -4.0570905597       17.7819854172       10.5902110549  MEMB      17              0.0000000000
      1997        17  PMPE      H5R            -3.3476939821       18.5164483286       10.9686241643  MEMB      17              0.0000000000
      1998        17  PMPE      H5S            -4.9105179706       18.3587670576       10.1856642993  MEMB      17              0.0000000000
      1999        17  PMPE      C26            -3.5366167410       16.9155378333        9.4511233180  MEMB      17              0.0000000000
      2000        17  PMPE      H6R            -4.2906490511       16.1436481950        9.4146420427  MEMB      17              0.0000000000
      2001        17  PMPE      H6S            -2.5838976278       16.4098467158        9.7198628850  MEMB      17              0.0000000000
      2002        17  PMPE      C27            -3.5520682315       17.5750960478        8.0569865207  MEMB      17              0.0000000000
      2003        17  PMPE      H7R            -2.6169812011       17.9812530860        7.7579171257  MEMB      17              0.0000000000
      2004        17  PMPE      H7S            -4.2938328310       18.3685394725        7.8879160853  MEMB      17              0.0000000000
      2005        17  PMPE      C28            -3.3509491279       16.7435546910        6.9001271583  MEMB      17              0.0000000000
      2006        17  PMPE      H8R            -2.4649880783       16.0597622416        7.0599311819  MEMB      17              0.0000000000
      2007        17  PMPE      H8S            -3.1471442963       17.3389396164        5.9859773999  MEMB      17              0.0000000000
      2008        17  PMPE      C29            -4.7254911450       16.2448274354        6.8238865603  MEMB      17              0.0000000000
      2009        17  PMPE      H9R            -5.5511462814       16.8933623383        6.8459721085  MEMB      17              0.0000000000
      2010        17  PMPE      C217           -4.8191769247       14.9773534239        7.4994040560  MEMB      17              0.0000000000
      2011        17  PMPE      H17R           -5.6528013839       14.3321102975        7.7214124180  MEMB      17              0.0000000000
      2012        17  PMPE      H17S           -3.8966917301       14.7635781008        8.0443818739  MEMB      17              0.0000000000
      2013        17  PMPE      C210           -4.9102641388       15.2183893506        5.8683257873  MEMB      17              0.0000000000
      2014        17  PMPE      H10R           -5.8825075914       14.7718716508        5.6946206659  MEMB      17              0.0000000000
      2015        17  PMPE      C211           -3.7579626894       15.5527635962        4.7471328403  MEMB      17              0.0000000000
      2016        17  PMPE      H11R           -3.7447291826       14.8174000434        3.8536462554  MEMB      17              0.0000000000
      2017        17  PMPE      H11S           -2.9992272986       15.2576991369        5.3466233603  MEMB      17              0.0000000000
      2018        17  PMPE      C212           -3.3391637308       15.8749200789        3.3527102141  MEMB      17              0.0000000000
      2019        17  PMPE      H12R           -2.6948255932       15.3480939612        2.5200149933  MEMB      17              0.0000000000
      2020        17  PMPE      H12S           -2.7991584088       16.6565237850        3.8905807035  MEMB      17              0.0000000000
      2021        17  PMPE      C213           -4.4756248972       16.2347708638        2.7895129259  MEMB      17              0.0000000000
      2022        17  PMPE      H13R           -5.0480374466       16.6176708568        3.5903711852  MEMB      17              0.0000000000
      2023        17  PMPE      H13S           -4.9811268696       15.3404395435        2.3890182005  MEMB      17              0.0000000000
      2024        17  PMPE      C214           -3.7962752356       17.2390517203        2.0298970710  MEMB      17              0.0000000000
      2025        17  PMPE      H14R           -3.1921099309       16.7406143104        1.2244239795  MEMB      17              0.0000000000
      2026        17  PMPE      H14S           -3.2540850853       17.9938632238        2.6609897498  MEMB      17              0.0000000000
      2027        17  PMPE      C215           -4.9186599115       17.8710947211        1.5523602329  MEMB      17              0.0000000000
      2028        17  PMPE      H15R           -5.6029620295       17.9987576084        2.3482750880  MEMB      17              0.0000000000
      2029        17  PMPE      H15S           -5.3137645076       16.9331121572        1.2067608544  MEMB      17              0.0000000000
      2030        17  PMPE      C216           -4.6793362632       19.0600027477        0.7174236005  MEMB      17              0.0000000000
      2031        17  PMPE      H16R           -4.0325061367       19.7099403319        1.3403443884  MEMB      17              0.0000000000
      2032        17  PMPE      H16S           -4.0871468570       18.9324039486       -0.2196276890  MEMB      17              0.0000000000
      2033        17  PMPE      H16T           -5.5491178142       19.6587212486        0.4314708019  MEMB      17              0.0000000000
      2034        17  PMPE      C33            -8.1222685459       21.0069161468       12.0018894025  MEMB      17              0.0000000000
      2035        17  PMPE      H3X            -7.8073705349       21.7996661042       11.3159046100  MEMB      17              0.0000000000
      2036        17  PMPE      H3Y            -8.7715899589       21.7096920279       12.5971053566  MEMB      17              0.0000000000
      2037        17  PMPE      C34            -8.6740018408       19.6233810290       11.3869362992  MEMB      17              0.0000000000
      2038        17  PMPE      H4X            -9.3595408654       20.3923700947       11.1526363038  MEMB      17              0.0000000000
      2039        17  PMPE      H4Y            -9.2948748124       18.8632125790       11.7901748234  MEMB      17              0.0000000000
      2040        17  PMPE      C35            -8.6015822649       18.6073153167       10.1672416480  MEMB      17              0.0000000000
      2041        17  PMPE      H5X            -7.5872413717       18.2302440927       10.1160997865  MEMB      17              0.0000000000
      2042        17  PMPE      H5Y            -8.8612309634       19.1679576979        9.3384475679  MEMB      17              0.0000000000
      2043        17  PMPE      C36            -9.8170632966       17.7194136640        9.5731304385  MEMB      17              0.0000000000
      2044        17  PMPE      H6X           -10.8701165539       18.0693685390        9.4883338779  MEMB      17              0.0000000000
      2045        17  PMPE      H6Y           -10.0040356362       16.9520553512       10.2729767509  MEMB      17              0.0000000000
      2046        17  PMPE      C37            -9.7659038990       17.4970161262        8.0572898136  MEMB      17              0.0000000000
      2047        17  PMPE      H7X            -8.7463783504       17.1550083259        7.8104977755  MEMB      17              0.0000000000
      2048        17  PMPE      H7Y           -10.0388594009       18.4797787921        7.6215011386  MEMB      17              0.0000000000
      2049        17  PMPE      C38           -10.9594692731       17.0728959146        7.2428303818  MEMB      17              0.0000000000
      2050        17  PMPE      H8X           -11.8271840630       17.7221495698        7.5413369954  MEMB      17              0.0000000000
      2051        17  PMPE      H8Y           -11.0720051804       16.0393487677        7.5870634025  MEMB      17              0.0000000000
      2052        17  PMPE      C39           -10.6872415247       17.2264365995        5.7303034063  MEMB      17              0.0000000000
      2053        17  PMPE      H9X           -10.3059664216       18.2223981755        5.4064204069  MEMB      17              0.0000000000
      2054        17  PMPE      H9Y           -11.6402884136       17.0867282390        5.1780193762  MEMB      17              0.0000000000
      2055        17  PMPE      C310           -9.7117974171       16.1510051041        5.2831012888  MEMB      17              0.0000000000
      2056        17  PMPE      H10X          -10.0324144769       15.2183489736        5.8023823720  MEMB      17              0.0000000000
      2057        17  PMPE      H10Y           -8.6682928552       16.3182785205        5.6269739332  MEMB      17              0.0000000000
      2058        17  PMPE      C311           -9.7533883687       15.9591027025        3.7712873716  MEMB      17              0.0000000000
      2059        17  PMPE      H11X           -9.1560113420       16.7413125350        3.2536736727  MEMB      17              0.0000000000
      2060        17  PMPE      H11Y          -10.7957956639       16.0158159107        3.3832682836  MEMB      17              0.0000000000
      2061        17  PMPE      C312           -9.2315995232       14.5694251443        3.4728534080  MEMB      17              0.0000000000
      2062        17  PMPE      H12X           -9.8589610780       13.8690801675        4.0723710807  MEMB      17              0.0000000000
      2063        17  PMPE      H12Y           -8.1809920405       14.5173623184        3.8415802384  MEMB      17              0.0000000000
      2064        17  PMPE      C313           -9.2954800848       14.1995994340        1.9946737397  MEMB      17              0.0000000000
      2065        17  PMPE      H13X           -9.1282374465       15.1219183399        1.3936006125  MEMB      17              0.0000000000
      2066        17  PMPE      H13Y          -10.3206506841       13.8439839651        1.7436547341  MEMB      17              0.0000000000
      2067        17  PMPE      C314           -8.2463533068       13.1204587269        1.6690516057  MEMB      17              0.0000000000
      2068        17  PMPE      H14X           -8.5591443390       12.5860340174        0.7482070342  MEMB      17              0.0000000000
      2069        17  PMPE      H14Y           -8.2488051200       12.3753231445        2.4968733821  MEMB      17              0.0000000000
      2070        17  PMPE      C315           -6.8383832257       13.7325518225        1.4815176378  MEMB      17              0.0000000000
      2071        17  PMPE      H15X           -6.6445084740       14.3805903545        2.3558770325  MEMB      17              0.0000000000
      2072        17  PMPE      H15Y           -6.8802371317       14.3791226941        0.5732047068  MEMB      17              0.0000000000
      2073        17  PMPE      C316           -5.6137063270       12.8102339641        1.4243691253  MEMB      17              0.0000000000
      2074        17  PMPE      H16X           -5.6924495265       12.1071192209        0.6422175967  MEMB      17              0.0000000000
      2075        17  PMPE      H16Y           -5.4763273726       12.1684948022        2.3132706104  MEMB      17              0.0000000000
      2076        17  PMPE      H16Z           -4.6835276690       13.2898943792        1.0775193985  MEMB      17              0.0000000000
      2077        18  QMPE      N               6.1894159785      -19.2724816745       20.2178995509  MEMB      18              0.0000000000
      2078        18  QMPE      HN1             6.7719719681      -18.5206770653       20.6488814378  MEMB      18              0.0000000000
      2079        18  QMPE      HN2             5.5715833828      -19.6460037079       20.9545811291  MEMB      18              0.0000000000
      2080        18  QMPE      HN3             6.8766441078      -19.9712888030       19.8739021554  MEMB      18              0.0000000000
      2081        18  QMPE      C12             5.4398693942      -18.7521935922       19.0329871393  MEMB      18              0.0000000000
      2082        18  QMPE      H12A            4.5510276869      -18.1855740720       19.3780501356  MEMB      18              0.0000000000
      2083        18  QMPE      H12B            5.1000195710      -19.6232952765       18.4291470097  MEMB      18              0.0000000000
      2084        18  QMPE      C11             6.3552634049      -17.8920396505       18.1536972572  MEMB      18              0.0000000000
      2085        18  QMPE      H11A            5.6958167616      -17.5695265543       17.3485845355  MEMB      18              0.0000000000
      2086        18  QMPE      H11B            7.1412276991      -18.5419932250       17.6933949938  MEMB      18              0.0000000000
      2087        18  QMPE      P               8.4132624163      -16.5447702495       19.0283000811  MEMB      18              0.0000000000
      2088        18  QMPE      O13             8.7737976075      -17.8030507325       19.6417822201  MEMB      18              0.0000000000
      2089        18  QMPE      O14             8.6503148928      -15.2919359709       19.7933337351  MEMB      18              0.0000000000
      2090        18  QMPE      O11             9.0504630071      -16.3768461448       17.5879467143  MEMB      18              0.0000000000
      2091        18  QMPE      O12             6.8501861347      -16.7062267527       18.7941677810  MEMB      18              0.0000000000
      2092        18  QMPE      C1              8.8963334780      -15.1067335613       16.9400010938  MEMB      18              0.0000000000
      2093        18  QMPE      HA              9.7992251266      -14.9155968628       16.3210318230  MEMB      18              0.0000000000
      2094        18  QMPE      HB              8.7661190390      -14.2551179788       17.6463735688  MEMB      18              0.0000000000
      2095        18  QMPE      C2              7.6667037061      -15.1213896726       16.0430567287  MEMB      18              0.0000000000
      2096        18  QMPE      HS              6.7782167889      -15.2345760800       16.7242732496  MEMB      18              0.0000000000
      2097        18  QMPE      O21             7.9043934372      -16.1830252507       15.1154185740  MEMB      18              0.0000000000
      2098        18  QMPE      C21             6.8934397327      -16.9186114942       14.7788727623  MEMB      18              0.0000000000
      2099        18  QMPE      O22             5.8424896630      -17.0192457615       15.3447999536  MEMB      18              0.0000000000
      2100        18  QMPE      C22             7.1950627388      -17.6759062371       13.4992666129  MEMB      18              0.0000000000
      2101        18  QMPE      H2R             7.6991689913      -18.5959227427       13.8072525943  MEMB      18              0.0000000000
      2102        18  QMPE      H2S             7.8420652031      -16.9790568670       12.9237527479  MEMB      18              0.0000000000
      2103        18  QMPE      C3              7.4238153874      -13.8516168314       15.2084698840  MEMB      18              0.0000000000
      2104        18  QMPE      HX              7.2991266140      -12.9959505681       15.8259181399  MEMB      18              0.0000000000
      2105        18  QMPE      HY              6.3997268377      -13.9501630695       14.7753006941  MEMB      18              0.0000000000
      2106        18  QMPE      O31             8.5109959641      -13.5515121924       14.2896937714  MEMB      18              0.0000000000
      2107        18  QMPE      C31             8.1572721923      -13.8416350614       13.0607242313  MEMB      18              0.0000000000
      2108        18  QMPE      O32             7.0619642769      -14.2370011166       12.7034166080  MEMB      18              0.0000000000
      2109        18  QMPE      C32             9.2902838922      -13.7043450285       12.0908174805  MEMB      18              0.0000000000
      2110        18  QMPE      H2X             9.3193050765      -12.6809960334       11.6592407082  MEMB      18              0.0000000000
      2111        18  QMPE      H2Y            10.2743704022      -13.9048221788       12.5685929904  MEMB      18              0.0000000000
      2112        18  QMPE      C23             5.9533909662      -18.0623236147       12.6448995630  MEMB      18              0.0000000000
      2113        18  QMPE      H3R             5.8308424194      -17.0760217714       12.1871261280  MEMB      18              0.0000000000
      2114        18  QMPE      H3S             5.0325309656      -18.3565980269       13.2010219901  MEMB      18              0.0000000000
      2115        18  QMPE      C24             6.1198202381      -18.9714992760       11.4312906145  MEMB      18              0.0000000000
      2116        18  QMPE      H4R             6.0800547764      -20.0087248486       11.7872589241  MEMB      18              0.0000000000
      2117        18  QMPE      H4S             7.1228503219      -18.7133094420       11.0182981158  MEMB      18              0.0000000000
      2118        18  QMPE      C25             4.9804789018      -18.9121146404       10.3877988133  MEMB      18              0.0000000000
      2119        18  QMPE      H5R             4.0769395658      -18.3992462961       10.8190264947  MEMB      18              0.0000000000
      2120        18  QMPE      H5S             4.6502835797      -19.8606015079        9.9470450578  MEMB      18              0.0000000000
      2121        18  QMPE      C26             5.4143816516      -18.2115878274        9.1444577109  MEMB      18              0.0000000000
      2122        18  QMPE      H6R             6.2453765610      -18.4369265176        8.4728654089  MEMB      18              0.0000000000
      2123        18  QMPE      H6S             6.0253834643      -17.4468782248        9.6562202989  MEMB      18              0.0000000000
      2124        18  QMPE      C27             4.2102586048      -17.9242138888        8.2346261165  MEMB      18              0.0000000000
      2125        18  QMPE      H7R             4.4584640667      -17.1145784808        7.5303303086  MEMB      18              0.0000000000
      2126        18  QMPE      H7S             3.2329847380      -17.6383674639        8.7075566716  MEMB      18              0.0000000000
      2127        18  QMPE      C28             4.1991832961      -18.8504204481        7.1119185204  MEMB      18              0.0000000000
      2128        18  QMPE      H8R             4.3163721297      -19.7752829620        7.6799911705  MEMB      18              0.0000000000
      2129        18  QMPE      H8S             5.0797207075      -18.5995438628        6.4677954153  MEMB      18              0.0000000000
      2130        18  QMPE      C29             2.8460188044      -18.6960226034        6.5366720811  MEMB      18              0.0000000000
      2131        18  QMPE      H9R             2.0705490218      -18.6985771423        7.2861492870  MEMB      18              0.0000000000
      2132        18  QMPE      C217            2.6342267095      -19.5530201374        5.3161965494  MEMB      18              0.0000000000
      2133        18  QMPE      H17R            3.5761950789      -19.8805899476        4.8854042516  MEMB      18              0.0000000000
      2134        18  QMPE      H17S            1.6468530468      -19.8694615230        5.0416340996  MEMB      18              0.0000000000
      2135        18  QMPE      C210            2.6219863796      -18.0636709657        5.2364167800  MEMB      18              0.0000000000
      2136        18  QMPE      H10R            1.6683232709      -17.4890375940        5.1697740294  MEMB      18              0.0000000000
      2137        18  QMPE      C211            3.8216837590      -17.7081915525        4.4649072138  MEMB      18              0.0000000000
      2138        18  QMPE      H11R            4.4770206248      -17.1510038181        5.1535570358  MEMB      18              0.0000000000
      2139        18  QMPE      H11S            4.5191530861      -18.3723383302        3.9217030050  MEMB      18              0.0000000000
      2140        18  QMPE      C212            3.2140543932      -16.9784450907        3.3793373367  MEMB      18              0.0000000000
      2141        18  QMPE      H12R            4.1072363488      -16.4930930217        2.9697932219  MEMB      18              0.0000000000
      2142        18  QMPE      H12S            2.4492571540      -16.2451573240        3.6704468714  MEMB      18              0.0000000000
      2143        18  QMPE      C213            2.2387164214      -17.5178216847        2.5142692722  MEMB      18              0.0000000000
      2144        18  QMPE      H13R            1.5914920844      -18.2063738506        3.0611254705  MEMB      18              0.0000000000
      2145        18  QMPE      H13S            3.0288185908      -17.9275652184        1.8172321668  MEMB      18              0.0000000000
      2146        18  QMPE      C214            1.3050871406      -16.3492790091        2.1498638354  MEMB      18              0.0000000000
      2147        18  QMPE      H14R            1.5543885566      -16.0061103757        1.1200092823  MEMB      18              0.0000000000
      2148        18  QMPE      H14S            0.9726747899      -15.4432184563        2.7152274864  MEMB      18              0.0000000000
      2149        18  QMPE      C215            0.5384739443      -16.6922897627        1.2982436874  MEMB      18              0.0000000000
      2150        18  QMPE      H15R           -0.0789262810      -15.6876682548        1.1410500166  MEMB      18              0.0000000000
      2151        18  QMPE      H15S           -0.3463328997      -16.8295604865        1.6445080389  MEMB      18              0.0000000000
      2152        18  QMPE      C216            1.3762348302      -17.7757964250        0.3589809245  MEMB      18              0.0000000000
      2153        18  QMPE      H16R            0.5975056059      -18.3635371642        0.2915315974  MEMB      18              0.0000000000
      2154        18  QMPE      H16S            1.7949912355      -18.7868659172        0.5584289180  MEMB      18              0.0000000000
      2155        18  QMPE      H16T            1.5826776201      -17.5820025837       -0.6672103596  MEMB      18              0.0000000000
      2156        18  QMPE      C33             8.7964484292      -14.7323184492       11.0501452100  MEMB      18              0.0000000000
      2157        18  QMPE      H3X             7.9205751523      -14.3498144229       10.4932148359  MEMB      18              0.0000000000
      2158        18  QMPE      H3Y             8.6700480407      -15.7473650753       11.4978806640  MEMB      18              0.0000000000
      2159        18  QMPE      C34             9.7080754237      -14.9474767665        9.9348033269  MEMB      18              0.0000000000
      2160        18  QMPE      H4X            10.4402752966      -15.3500136085       10.5443069436  MEMB      18              0.0000000000
      2161        18  QMPE      H4Y            10.0355252838      -13.9620130437        9.5346115843  MEMB      18              0.0000000000
      2162        18  QMPE      C35             9.7307582505      -16.1777392878        9.0322884325  MEMB      18              0.0000000000
      2163        18  QMPE      H5X             9.4599686704      -17.0822343459        9.6039793952  MEMB      18              0.0000000000
      2164        18  QMPE      H5Y            10.7124064281      -16.3663304849        8.5114470179  MEMB      18              0.0000000000
      2165        18  QMPE      C36             8.6887584300      -15.7565659528        8.0870714396  MEMB      18              0.0000000000
      2166        18  QMPE      H6X             8.9540812091      -14.7283870001        8.0104264402  MEMB      18              0.0000000000
      2167        18  QMPE      H6Y             7.7615714876      -15.5907359308        8.6315519935  MEMB      18              0.0000000000
      2168        18  QMPE      C37             8.6157229856      -16.5281050152        6.7871513475  MEMB      18              0.0000000000
      2169        18  QMPE      H7X             9.6411720031      -16.7047383448        6.3840254702  MEMB      18              0.0000000000
      2170        18  QMPE      H7Y             8.1777583677      -17.4831784493        7.1419195044  MEMB      18              0.0000000000
      2171        18  QMPE      C38             7.7230458345      -15.8803692238        5.7033197134  MEMB      18              0.0000000000
      2172        18  QMPE      H8X             6.9640871544      -15.2676583900        6.2242750966  MEMB      18              0.0000000000
      2173        18  QMPE      H8Y             8.2264276762      -15.1767359051        5.0064825011  MEMB      18              0.0000000000
      2174        18  QMPE      C39             7.1531195759      -16.8896382471        4.7289933081  MEMB      18              0.0000000000
      2175        18  QMPE      H9X             6.4052350392      -16.3937357671        4.0738272366  MEMB      18              0.0000000000
      2176        18  QMPE      H9Y             6.6868184941      -17.7013493209        5.3117634426  MEMB      18              0.0000000000
      2177        18  QMPE      C310            8.2124553425      -17.5000120422        3.8141024452  MEMB      18              0.0000000000
      2178        18  QMPE      H10X            9.1134988276      -17.7608090870        4.3838321390  MEMB      18              0.0000000000
      2179        18  QMPE      H10Y            8.5389962491      -16.6730791703        3.1328773781  MEMB      18              0.0000000000
      2180        18  QMPE      C311            7.6707940902      -18.7247685950        3.0350311076  MEMB      18              0.0000000000
      2181        18  QMPE      H11X            8.1774777857      -18.8006962753        2.0440162061  MEMB      18              0.0000000000
      2182        18  QMPE      H11Y            6.5738562096      -18.5948885933        2.9021662967  MEMB      18              0.0000000000
      2183        18  QMPE      C312            7.6533930999      -20.0652277788        3.7012773195  MEMB      18              0.0000000000
      2184        18  QMPE      H12X            6.8827913724      -19.9994932015        4.5013961012  MEMB      18              0.0000000000
      2185        18  QMPE      H12Y            8.6605174431      -20.2158037308        4.1268479400  MEMB      18              0.0000000000
      2186        18  QMPE      C313            7.2481063655      -21.2231424493        2.7713813066  MEMB      18              0.0000000000
      2187        18  QMPE      H13X            8.0601412574      -21.4248213510        2.0393267666  MEMB      18              0.0000000000
      2188        18  QMPE      H13Y            7.1975953890      -22.1001250244        3.4525595325  MEMB      18              0.0000000000
      2189        18  QMPE      C314            5.8829786260      -21.0548614662        2.0558013903  MEMB      18              0.0000000000
      2190        18  QMPE      H14X            5.9655828684      -20.3339937394        1.2136760064  MEMB      18              0.0000000000
      2191        18  QMPE      H14Y            5.1630260829      -20.6045648160        2.7775585325  MEMB      18              0.0000000000
      2192        18  QMPE      C315            5.2906689973      -22.3811052007        1.5546804335  MEMB      18              0.0000000000
      2193        18  QMPE      H15X            6.0730607079      -22.9891936661        1.0493805370  MEMB      18              0.0000000000
      2194        18  QMPE      H15Y            4.9031504905      -22.9353470154        2.4365632086  MEMB      18              0.0000000000
      2195        18  QMPE      H15Z            4.4401709961      -22.2558995634        0.8501861479  MEMB      18              0.0000000000
      2196        19  OYPE      N              -9.6923582210      -20.3078829417       19.1436746667  MEMB      19              0.0000000000
      2197        19  OYPE      HN1            -9.2103067727      -21.0247804471       19.7281565379  MEMB      19              0.0000000000
      2198        19  OYPE      HN2           -10.4466868123      -19.8589396017       19.7012552426  MEMB      19              0.0000000000
      2199        19  OYPE      HN3           -10.1364820574      -20.7697933071       18.3131016508  MEMB      19              0.0000000000
      2200        19  OYPE      C12            -8.6931745778      -19.2608848778       18.7232647414  MEMB      19              0.0000000000
      2201        19  OYPE      H12A           -9.2367335859      -18.5338452745       18.0933435838  MEMB      19              0.0000000000
      2202        19  OYPE      H12B           -7.9011835708      -19.7508911074       18.1210808166  MEMB      19              0.0000000000
      2203        19  OYPE      C11            -8.1079036695      -18.5207923932       19.9386664650  MEMB      19              0.0000000000
      2204        19  OYPE      H11A           -7.5809865866      -19.2089749500       20.6407482465  MEMB      19              0.0000000000
      2205        19  OYPE      H11B           -8.9534125547      -18.1069292683       20.5146317713  MEMB      19              0.0000000000
      2206        19  OYPE      P              -5.8776375312      -17.6200589574       18.8473382104  MEMB      19              0.0000000000
      2207        19  OYPE      O13            -5.3978364855      -18.9652518688       19.1986703098  MEMB      19              0.0000000000
      2208        19  OYPE      O14            -5.0489104151      -16.4344005223       19.1368615347  MEMB      19              0.0000000000
      2209        19  OYPE      O11            -6.3488565245      -17.5930021070       17.3187880301  MEMB      19              0.0000000000
      2210        19  OYPE      O12            -7.2923756970      -17.4157318402       19.5489785205  MEMB      19              0.0000000000
      2211        19  OYPE      C1             -7.0399488553      -16.4438996950       16.7878243754  MEMB      19              0.0000000000
      2212        19  OYPE      HA             -7.2265839540      -15.6524188536       17.5417098228  MEMB      19              0.0000000000
      2213        19  OYPE      HB             -8.0245938577      -16.7570073620       16.3751514537  MEMB      19              0.0000000000
      2214        19  OYPE      C2             -6.2727672488      -15.7023471377       15.6651897223  MEMB      19              0.0000000000
      2215        19  OYPE      HS             -6.9306018188      -14.9044867929       15.2548931887  MEMB      19              0.0000000000
      2216        19  OYPE      O21            -5.9529589387      -16.6447398268       14.6426085327  MEMB      19              0.0000000000
      2217        19  OYPE      C21            -6.8806514586      -17.1912992718       13.9414114724  MEMB      19              0.0000000000
      2218        19  OYPE      O22            -8.0643638591      -16.9200243939       13.9760442946  MEMB      19              0.0000000000
      2219        19  OYPE      C22            -6.2539076440      -18.3174844554       13.1296673093  MEMB      19              0.0000000000
      2220        19  OYPE      H2R            -5.1693292634      -18.1273877844       12.9794874137  MEMB      19              0.0000000000
      2221        19  OYPE      H2S            -6.7537593094      -18.3624225867       12.1410557823  MEMB      19              0.0000000000
      2222        19  OYPE      C3             -4.9651833410      -14.9984467977       16.1929489397  MEMB      19              0.0000000000
      2223        19  OYPE      HX             -4.2625838903      -15.8150340803       16.4555536371  MEMB      19              0.0000000000
      2224        19  OYPE      HY             -5.0899425439      -14.4767325026       17.1561883094  MEMB      19              0.0000000000
      2225        19  OYPE      O31            -4.4247578307      -14.0008117655       15.2862097714  MEMB      19              0.0000000000
      2226        19  OYPE      C31            -3.9104308238      -14.5503859245       14.2072559910  MEMB      19              0.0000000000
      2227        19  OYPE      O32            -3.8980432776      -15.7300967489       13.9580649151  MEMB      19              0.0000000000
      2228        19  OYPE      C32            -3.3932745994      -13.5198318383       13.2075838186  MEMB      19              0.0000000000
      2229        19  OYPE      H2X            -4.2823106750      -13.0334068927       12.8307755220  MEMB      19              0.0000000000
      2230        19  OYPE      H2Y            -2.5972973526      -12.8780847382       13.6483846303  MEMB      19              0.0000000000
      2231        19  OYPE      C23            -6.3715868946      -19.6431358754       13.8957541161  MEMB      19              0.0000000000
      2232        19  OYPE      H3R            -7.4419996594      -19.9490674011       13.8878167603  MEMB      19              0.0000000000
      2233        19  OYPE      H3S            -6.0400117605      -19.4868931817       14.9520362865  MEMB      19              0.0000000000
      2234        19  OYPE      C24            -5.4385946879      -20.6929754599       13.2817345942  MEMB      19              0.0000000000
      2235        19  OYPE      H4R            -5.2524536540      -21.5319171990       13.9873009431  MEMB      19              0.0000000000
      2236        19  OYPE      H4S            -4.4476389517      -20.2113837668       13.1069920467  MEMB      19              0.0000000000
      2237        19  OYPE      C25            -6.0062469424      -21.2868007751       11.9900160037  MEMB      19              0.0000000000
      2238        19  OYPE      H5R            -6.2690042227      -20.4678601831       11.2880215944  MEMB      19              0.0000000000
      2239        19  OYPE      H5S            -6.9410987172      -21.8367820487       12.2427662087  MEMB      19              0.0000000000
      2240        19  OYPE      C26            -5.0279855562      -22.2594600064       11.3296560507  MEMB      19              0.0000000000
      2241        19  OYPE      H6R            -4.7904513161      -23.0598199367       12.0742380856  MEMB      19              0.0000000000
      2242        19  OYPE      H6S            -4.0889288311      -21.7095449627       11.0999580890  MEMB      19              0.0000000000
      2243        19  OYPE      C27            -5.5468434883      -22.9193843491       10.0406513928  MEMB      19              0.0000000000
      2244        19  OYPE      H7R            -6.3669040855      -23.6183327157       10.2917527518  MEMB      19              0.0000000000
      2245        19  OYPE      H7S            -4.7259570660      -23.5131904641        9.5790301678  MEMB      19              0.0000000000
      2246        19  OYPE      C28            -6.1531233399      -21.9974404976        8.9796337116  MEMB      19              0.0000000000
      2247        19  OYPE      H8R            -7.1048968213      -21.5534553965        9.3361437315  MEMB      19              0.0000000000
      2248        19  OYPE      H8S            -6.4032757385      -22.6530896986        8.1134773722  MEMB      19              0.0000000000
      2249        19  OYPE      C29            -5.2395301616      -20.9239591437        8.5135717570  MEMB      19              0.0000000000
      2250        19  OYPE      H9R            -5.3577167678      -19.9093120814        8.9305701168  MEMB      19              0.0000000000
      2251        19  OYPE      C210           -4.3205954827      -21.0981866195        7.5808936560  MEMB      19              0.0000000000
      2252        19  OYPE      H10R           -3.8802788699      -20.1435927917        7.2738548963  MEMB      19              0.0000000000
      2253        19  OYPE      C211           -3.9030542542      -22.3213159189        6.7425917158  MEMB      19              0.0000000000
      2254        19  OYPE      H11R           -4.2160270522      -23.2715083331        7.1975828412  MEMB      19              0.0000000000
      2255        19  OYPE      H11S           -2.7862864699      -22.3355973836        6.6632446224  MEMB      19              0.0000000000
      2256        19  OYPE      C212           -4.4553887039      -22.5042269813        5.2923992734  MEMB      19              0.0000000000
      2257        19  OYPE      H12R           -5.5585782569      -22.3572135947        5.2301834697  MEMB      19              0.0000000000
      2258        19  OYPE      H12S           -4.0185875221      -23.3239932662        4.7007908481  MEMB      19              0.0000000000
      2259        19  OYPE      C213           -3.9990269140      -21.4785671692        4.4024054006  MEMB      19              0.0000000000
      2260        19  OYPE      H13R           -2.9191013530      -21.2856964048        4.2366065155  MEMB      19              0.0000000000
      2261        19  OYPE      H13S           -4.1114315384      -20.8213559335        5.2784900308  MEMB      19              0.0000000000
      2262        19  OYPE      C214           -4.9330281057      -21.0296362054        3.2003931152  MEMB      19              0.0000000000
      2263        19  OYPE      H14R           -5.0731585088      -19.9502707646        2.8872952960  MEMB      19              0.0000000000
      2264        19  OYPE      H14S           -5.9840429641      -21.2404333117        3.3811974471  MEMB      19              0.0000000000
      2265        19  OYPE      C215           -4.2197604075      -21.4831121976        1.9927722190  MEMB      19              0.0000000000
      2266        19  OYPE      H15R           -3.9024390358      -22.5099760165        2.2213046570  MEMB      19              0.0000000000
      2267        19  OYPE      H15S           -3.2922647270      -20.9844197240        1.7524144317  MEMB      19              0.0000000000
      2268        19  OYPE      C216           -4.9800684780      -21.2535525017        0.7555557132  MEMB      19              0.0000000000
      2269        19  OYPE      H16R           -6.0395933203      -21.5464348755        0.9313997650  MEMB      19              0.0000000000
      2270        19  OYPE      H16S           -4.4358684972      -21.9392790314        0.0664507721  MEMB      19              0.0000000000
      2271        19  OYPE      H16T           -4.9520017826      -20.2329445936        0.3245650077  MEMB      19              0.0000000000
      2272        19  OYPE      C33            -2.7430483654      -14.0776197421       11.9612564371  MEMB      19              0.0000000000
      2273        19  OYPE      H3X            -2.1094877004      -14.7192144132       12.5414205975  MEMB      19              0.0000000000
      2274        19  OYPE      H3Y            -1.9002946852      -13.5098296785       11.5025481016  MEMB      19              0.0000000000
      2275        19  OYPE      C34            -3.5854451919      -14.7159879449       10.7954204457  MEMB      19              0.0000000000
      2276        19  OYPE      H4X            -4.2934135031      -13.9548771083       10.4539889364  MEMB      19              0.0000000000
      2277        19  OYPE      H4Y            -2.9237411328      -14.8355850887        9.9266763213  MEMB      19              0.0000000000
      2278        19  OYPE      C35            -4.2267371094      -16.1399456866       10.9163478415  MEMB      19              0.0000000000
      2279        19  OYPE      H5X            -5.1682201112      -15.9680593232       11.4545782183  MEMB      19              0.0000000000
      2280        19  OYPE      H5Y            -3.6119447176      -16.7794627189       11.5532165725  MEMB      19              0.0000000000
      2281        19  OYPE      C36            -4.5174936201      -16.9581974348        9.6061811416  MEMB      19              0.0000000000
      2282        19  OYPE      H6X            -3.6772522076      -17.4091901591        9.0218766265  MEMB      19              0.0000000000
      2283        19  OYPE      H6Y            -5.1105640631      -17.8594962842        9.8451421030  MEMB      19              0.0000000000
      2284        19  OYPE      C37            -5.1321989955      -15.9913533794        8.6238327449  MEMB      19              0.0000000000
      2285        19  OYPE      H7X            -5.8903950444      -15.3953061599        9.1475356575  MEMB      19              0.0000000000
      2286        19  OYPE      H7Y            -4.2758891763      -15.2982028958        8.3675941419  MEMB      19              0.0000000000
      2287        19  OYPE      C38            -5.8331854856      -16.5880822584        7.4187255882  MEMB      19              0.0000000000
      2288        19  OYPE      H8X            -6.3073886764      -17.5843172294        7.5470431748  MEMB      19              0.0000000000
      2289        19  OYPE      H8Y            -6.4195811237      -15.8568166993        6.8570677228  MEMB      19              0.0000000000
      2290        19  OYPE      C39            -4.6661445362      -16.7650943368        6.6419830004  MEMB      19              0.0000000000
      2291        19  OYPE      H9X            -4.2025148479      -17.6947260297        7.0228012124  MEMB      19              0.0000000000
      2292        19  OYPE      C310           -4.2023015736      -16.0598346135        5.5990512989  MEMB      19              0.0000000000
      2293        19  OYPE      H10X           -3.2372263491      -16.3200458992        5.1331627780  MEMB      19              0.0000000000
      2294        19  OYPE      C311           -4.5294289855      -14.9365161344        4.7809707864  MEMB      19              0.0000000000
      2295        19  OYPE      H11X           -4.9052948908      -14.2782860346        5.5513986423  MEMB      19              0.0000000000
      2296        19  OYPE      H11Y           -3.5551900288      -14.5894692171        4.3412782204  MEMB      19              0.0000000000
      2297        19  OYPE      C312           -5.5167514970      -15.2355174363        3.6402652501  MEMB      19              0.0000000000
      2298        19  OYPE      H12X           -5.5856865621      -14.2066118309        3.2179588057  MEMB      19              0.0000000000
      2299        19  OYPE      H12Y           -6.4997952710      -15.5722504195        3.9835104653  MEMB      19              0.0000000000
      2300        19  OYPE      C313           -5.0733225038      -16.2286631886        2.5644081424  MEMB      19              0.0000000000
      2301        19  OYPE      H13X           -3.9475386589      -16.1126836924        2.5971139140  MEMB      19              0.0000000000
      2302        19  OYPE      H13Y           -5.0760563898      -17.3182875019        2.5436761940  MEMB      19              0.0000000000
      2303        19  OYPE      C314           -5.6885193685      -16.2716447273        1.2437638680  MEMB      19              0.0000000000
      2304        19  OYPE      H14X           -5.1344171701      -17.1011465712        0.7532464109  MEMB      19              0.0000000000
      2305        19  OYPE      H14Y           -5.6612907678      -15.3910621224        0.6733737216  MEMB      19              0.0000000000
      2306        19  OYPE      C315           -7.0550835390      -16.5341661338        1.0601477091  MEMB      19              0.0000000000
      2307        19  OYPE      H15X           -7.2687277439      -16.4119956045       -0.0444946684  MEMB      19              0.0000000000
      2308        19  OYPE      H15Y           -7.4970619225      -15.6395017263        1.5646128643  MEMB      19              0.0000000000
      2309        19  OYPE      C316           -7.1337855625      -17.9183940422        1.6624459394  MEMB      19              0.0000000000
      2310        19  OYPE      H16X           -7.1344679622      -17.9589942533        2.7574383363  MEMB      19              0.0000000000
      2311        19  OYPE      H16Y           -6.4652969381      -18.7142749606        1.1912542283  MEMB      19              0.0000000000
      2312        19  OYPE      C317           -8.4763863054      -18.2141175348        1.5000701432  MEMB      19              0.0000000000
      2313        19  OYPE      H17X           -8.8633464056      -19.2283126006        1.6732682223  MEMB      19              0.0000000000
      2314        19  OYPE      H17Y           -8.1003193812      -18.5322209412        0.4693280084  MEMB      19              0.0000000000
      2315        19  OYPE      C318           -9.3865960698      -16.8674543582        1.7803054049  MEMB      19              0.0000000000
      2316        19  OYPE      H18X           -9.3575297995      -16.0270272312        1.0290931429  MEMB      19              0.0000000000
      2317        19  OYPE      H18Y          -10.4556911245      -16.8715732700        1.5916341326  MEMB      19              0.0000000000
      2318        19  OYPE      H18Z           -9.4663415361      -16.6006800201        2.8287004381  MEMB      19              0.0000000000
      2319        20  POPE      N             -14.2819262042       10.2681077268       20.7450982838  MEMB      20              0.0000000000
      2320        20  POPE      HN1           -13.6998530971        9.5898924833       20.2137883885  MEMB      20              0.0000000000
      2321        20  POPE      HN2           -13.7860485619       10.4741066619       21.6402134542  MEMB      20              0.0000000000
      2322        20  POPE      HN3           -15.1909486321        9.8025100826       20.9407431883  MEMB      20              0.0000000000
      2323        20  POPE      C12           -14.5832929643       11.4966945974       19.9137848948  MEMB      20              0.0000000000
      2324        20  POPE      H12A          -13.6289745770       11.8667268360       19.4904898168  MEMB      20              0.0000000000
      2325        20  POPE      H12B          -14.9965600056       12.2849975318       20.5791310528  MEMB      20              0.0000000000
      2326        20  POPE      C11           -15.5321828066       11.1817388527       18.7369680800  MEMB      20              0.0000000000
      2327        20  POPE      H11A          -15.1743302347       10.2865566060       18.1676835780  MEMB      20              0.0000000000
      2328        20  POPE      H11B          -15.4716989639       12.0303385838       18.0200787801  MEMB      20              0.0000000000
      2329        20  POPE      P             -17.7578841061        9.8541853930       18.5892092643  MEMB      20              0.0000000000
      2330        20  POPE      O13           -19.1805775350       10.1832949649       18.8071325813  MEMB      20              0.0000000000
      2331        20  POPE      O14           -17.1989794250        8.6357855949       19.1893482672  MEMB      20              0.0000000000
      2332        20  POPE      O11           -17.3217868363        9.9031908395       17.0744333443  MEMB      20              0.0000000000
      2333        20  POPE      O12           -16.8911032658       11.0577258862       19.1645739872  MEMB      20              0.0000000000
      2334        20  POPE      C1            -17.5996768582       11.0298421792       16.2982453400  MEMB      20              0.0000000000
      2335        20  POPE      HA            -16.7406377175       11.3380423150       15.6659102698  MEMB      20              0.0000000000
      2336        20  POPE      HB            -17.8644470810       11.9428592394       16.9004438642  MEMB      20              0.0000000000
      2337        20  POPE      C2            -18.7057168385       10.6668240602       15.3444588370  MEMB      20              0.0000000000
      2338        20  POPE      HS            -19.6656469189       10.5358399256       15.9430535136  MEMB      20              0.0000000000
      2339        20  POPE      O21           -18.5043648179        9.6231805489       14.4161603943  MEMB      20              0.0000000000
      2340        20  POPE      C21           -19.1919877809        8.5466147822       14.6540433195  MEMB      20              0.0000000000
      2341        20  POPE      O22           -19.8443478868        8.2958308370       15.6456904897  MEMB      20              0.0000000000
      2342        20  POPE      C22           -19.0995695688        7.6835927779       13.4038447667  MEMB      20              0.0000000000
      2343        20  POPE      H2R           -18.7754253459        8.2801587199       12.5226570626  MEMB      20              0.0000000000
      2344        20  POPE      H2S           -20.1235029293        7.3015671169       13.2447504370  MEMB      20              0.0000000000
      2345        20  POPE      C3            -18.8497724918       11.8649960447       14.5411966961  MEMB      20              0.0000000000
      2346        20  POPE      HX            -18.8722321185       12.6410140647       15.3371477375  MEMB      20              0.0000000000
      2347        20  POPE      HY            -19.7747799025       11.5671114375       13.9989213984  MEMB      20              0.0000000000
      2348        20  POPE      O31           -17.8618435081       12.3854064307       13.7209031327  MEMB      20              0.0000000000
      2349        20  POPE      C31           -18.2822749396       13.2688925350       12.8411058888  MEMB      20              0.0000000000
      2350        20  POPE      O32           -19.4004125552       13.5085677456       12.4727999691  MEMB      20              0.0000000000
      2351        20  POPE      C32           -17.0294655799       13.7196674825       12.2059825336  MEMB      20              0.0000000000
      2352        20  POPE      H2X           -16.9482975199       12.9798570470       11.3790140766  MEMB      20              0.0000000000
      2353        20  POPE      H2Y           -16.2258666742       13.6246615945       12.9561047414  MEMB      20              0.0000000000
      2354        20  POPE      C23           -18.1278533660        6.5146471384       13.6176281430  MEMB      20              0.0000000000
      2355        20  POPE      H3R           -17.9963127251        5.9700982022       12.6575298009  MEMB      20              0.0000000000
      2356        20  POPE      H3S           -18.5722853559        5.8012140512       14.3525305878  MEMB      20              0.0000000000
      2357        20  POPE      C24           -16.7653624202        7.0055749232       14.1294559170  MEMB      20              0.0000000000
      2358        20  POPE      H4R           -16.1116199861        6.1222757958       14.2872025329  MEMB      20              0.0000000000
      2359        20  POPE      H4S           -16.9478009747        7.4608428420       15.1298554265  MEMB      20              0.0000000000
      2360        20  POPE      C25           -16.0850139203        8.0356879484       13.2058277321  MEMB      20              0.0000000000
      2361        20  POPE      H5R           -16.6788364672        8.9743022011       13.1625279492  MEMB      20              0.0000000000
      2362        20  POPE      H5S           -16.0450373866        7.6147732835       12.1783082230  MEMB      20              0.0000000000
      2363        20  POPE      C26           -14.6936381569        8.4927957020       13.6634047422  MEMB      20              0.0000000000
      2364        20  POPE      H6R           -14.0165062893        7.6216228449       13.7900205237  MEMB      20              0.0000000000
      2365        20  POPE      H6S           -14.8060709036        8.9678446134       14.6674361545  MEMB      20              0.0000000000
      2366        20  POPE      C27           -14.0469411519        9.5392217285       12.7226823442  MEMB      20              0.0000000000
      2367        20  POPE      H7R           -13.0348345275        9.7266970427       13.1220980966  MEMB      20              0.0000000000
      2368        20  POPE      H7S           -14.5906995127       10.4959801803       12.7731880479  MEMB      20              0.0000000000
      2369        20  POPE      C28           -13.9008406185        9.1546298757       11.2413107793  MEMB      20              0.0000000000
      2370        20  POPE      H8R           -14.8040382655        8.6942518204       10.7969906063  MEMB      20              0.0000000000
      2371        20  POPE      H8S           -13.3081631252        8.2475523793       11.3092431590  MEMB      20              0.0000000000
      2372        20  POPE      C29           -13.2662321690       10.1721052966       10.2827627833  MEMB      20              0.0000000000
      2373        20  POPE      H91           -12.2088408853       10.1733854719       10.0041051562  MEMB      20              0.0000000000
      2374        20  POPE      C210          -13.7355329067       11.2020802915        9.6945357637  MEMB      20              0.0000000000
      2375        20  POPE      H101          -13.0868536470       11.6764103223        8.9411369080  MEMB      20              0.0000000000
      2376        20  POPE      C211          -15.1132189702       11.6021647341        9.9036641785  MEMB      20              0.0000000000
      2377        20  POPE      H11R          -14.9254697014       12.5650981600       10.4166148316  MEMB      20              0.0000000000
      2378        20  POPE      H11S          -15.6628151762       10.9396491239       10.6105504834  MEMB      20              0.0000000000
      2379        20  POPE      C212          -15.8391378461       11.7912391480        8.5810361663  MEMB      20              0.0000000000
      2380        20  POPE      H12R          -15.2257500546       12.4733383361        7.9541127473  MEMB      20              0.0000000000
      2381        20  POPE      H12S          -16.7935258506       12.2808123131        8.8684481617  MEMB      20              0.0000000000
      2382        20  POPE      C213          -16.2666799572       10.5852777689        7.7256938315  MEMB      20              0.0000000000
      2383        20  POPE      H13R          -16.8956963898        9.9219155287        8.3658886302  MEMB      20              0.0000000000
      2384        20  POPE      H13S          -15.4220815281        9.9756776526        7.3367669495  MEMB      20              0.0000000000
      2385        20  POPE      C214          -17.1015081670       11.0826350826        6.5210740602  MEMB      20              0.0000000000
      2386        20  POPE      H14R          -17.9550182327       11.6795806621        6.9134309412  MEMB      20              0.0000000000
      2387        20  POPE      H14S          -17.5202773161       10.1971019354        5.9964716456  MEMB      20              0.0000000000
      2388        20  POPE      C215          -16.3730405879       11.9586930589        5.4663408165  MEMB      20              0.0000000000
      2389        20  POPE      H15R          -16.1254276308       12.9609147314        5.8803484258  MEMB      20              0.0000000000
      2390        20  POPE      H15S          -17.0884310999       12.1125644039        4.6291277321  MEMB      20              0.0000000000
      2391        20  POPE      C216          -15.1215173131       11.2910835876        4.8732675654  MEMB      20              0.0000000000
      2392        20  POPE      H16R          -15.4381430794       10.2828204145        4.5328715322  MEMB      20              0.0000000000
      2393        20  POPE      H16S          -14.3649709469       11.1493310939        5.6759325187  MEMB      20              0.0000000000
      2394        20  POPE      C217          -14.4319159491       11.9976561376        3.6875786640  MEMB      20              0.0000000000
      2395        20  POPE      H17R          -13.4805191981       11.4439863201        3.5101865969  MEMB      20              0.0000000000
      2396        20  POPE      H17S          -14.1929038865       13.0595944350        3.9227025820  MEMB      20              0.0000000000
      2397        20  POPE      C218          -15.1722428757       11.9703878016        2.3580510126  MEMB      20              0.0000000000
      2398        20  POPE      H18R          -15.3122972760       10.9368293730        1.9936958837  MEMB      20              0.0000000000
      2399        20  POPE      H18S          -14.5805142245       12.5305299644        1.5951970059  MEMB      20              0.0000000000
      2400        20  POPE      H18T          -16.1650245714       12.4435260930        2.4853806275  MEMB      20              0.0000000000
      2401        20  POPE      C33           -16.9741885755       15.1306762609       11.6733566147  MEMB      20              0.0000000000
      2402        20  POPE      H3X           -15.9381997396       15.3638859086       11.3884530843  MEMB      20              0.0000000000
      2403        20  POPE      H3Y           -17.4196691188       15.9079303334       12.3521327590  MEMB      20              0.0000000000
      2404        20  POPE      C34           -17.6298397050       15.1021958876       10.3495842834  MEMB      20              0.0000000000
      2405        20  POPE      H4X           -18.6165816190       15.0264686617       10.7945763549  MEMB      20              0.0000000000
      2406        20  POPE      H4Y           -17.3663613189       14.3032397138        9.6397954481  MEMB      20              0.0000000000
      2407        20  POPE      C35           -17.7204464992       16.3697214959        9.6660622798  MEMB      20              0.0000000000
      2408        20  POPE      H5X           -16.6873254167       16.7758574018        9.6998935443  MEMB      20              0.0000000000
      2409        20  POPE      H5Y           -18.3924000259       16.9281432448       10.3896317323  MEMB      20              0.0000000000
      2410        20  POPE      C36           -18.2810219695       16.4814748628        8.2523222623  MEMB      20              0.0000000000
      2411        20  POPE      H6X           -18.2820857663       17.5388891776        8.0566818801  MEMB      20              0.0000000000
      2412        20  POPE      H6Y           -19.3591569527       16.4282937620        8.0700939392  MEMB      20              0.0000000000
      2413        20  POPE      C37           -17.5932860420       15.5839935959        7.2293778256  MEMB      20              0.0000000000
      2414        20  POPE      H7X           -17.5100243465       14.5534303414        7.5884437782  MEMB      20              0.0000000000
      2415        20  POPE      H7Y           -16.5217178088       15.8319184325        7.0786674299  MEMB      20              0.0000000000
      2416        20  POPE      C38           -18.3629751903       15.6131945610        5.9042214983  MEMB      20              0.0000000000
      2417        20  POPE      H8X           -17.6347397281       15.4134974627        5.1126584563  MEMB      20              0.0000000000
      2418        20  POPE      H8Y           -18.9745630638       16.5201569212        5.6999777780  MEMB      20              0.0000000000
      2419        20  POPE      C39           -19.4940255406       14.7122932728        5.8512491152  MEMB      20              0.0000000000
      2420        20  POPE      H9X           -20.0990363651       15.1254589147        6.6952922727  MEMB      20              0.0000000000
      2421        20  POPE      H9Y           -19.0495414184       13.7218813205        6.0510315902  MEMB      20              0.0000000000
      2422        20  POPE      C310          -20.3325490225       14.6653675311        4.5734561405  MEMB      20              0.0000000000
      2423        20  POPE      H10X          -20.5111334524       15.7414263741        4.2541094757  MEMB      20              0.0000000000
      2424        20  POPE      H10Y          -21.3434824329       14.3553379123        4.6939106379  MEMB      20              0.0000000000
      2425        20  POPE      C311          -19.6873169005       13.6159698722        3.5554213487  MEMB      20              0.0000000000
      2426        20  POPE      H11X          -20.2518203771       12.7736777871        3.2873457124  MEMB      20              0.0000000000
      2427        20  POPE      H11Y          -18.7180395795       13.1858382089        4.0153419658  MEMB      20              0.0000000000
      2428        20  POPE      C312          -19.5616707732       14.1328399842        2.1313843973  MEMB      20              0.0000000000
      2429        20  POPE      H12X          -20.5141881879       14.7479022963        1.7861254944  MEMB      20              0.0000000000
      2430        20  POPE      H12Y          -19.0536353428       13.8650558050        1.1901346713  MEMB      20              0.0000000000
      2431        20  POPE      C313          -18.3713116263       14.6972854192        2.9352338750  MEMB      20              0.0000000000
      2432        20  POPE      H13X          -18.8387245800       15.6207902960        3.4071748706  MEMB      20              0.0000000000
      2433        20  POPE      H13Y          -19.1340552673       15.3123111553        2.6005731244  MEMB      20              0.0000000000
      2434        20  POPE      C314          -16.6748761990       14.7347309357        2.5397934281  MEMB      20              0.0000000000
      2435        20  POPE      H14X          -16.4747235460       14.4305720143        3.5471113356  MEMB      20              0.0000000000
      2436        20  POPE      H14Y          -16.0012320612       15.5758509710        2.8281584600  MEMB      20              0.0000000000
      2437        20  POPE      C315          -15.7080911855       14.7975582665        1.1342074989  MEMB      20              0.0000000000
      2438        20  POPE      H15X          -16.2719711422       14.1106253338        0.4825937386  MEMB      20              0.0000000000
      2439        20  POPE      H15Y          -14.7154517045       14.6167362868        1.5550599991  MEMB      20              0.0000000000
      2440        20  POPE      C316          -15.0162247691       15.8025212122        0.0034325676  MEMB      20              0.0000000000
      2441        20  POPE      H16X          -14.9886257365       16.9151228075        0.1235707764  MEMB      20              0.0000000000
      2442        20  POPE      H16Y          -15.7790674445       15.8213304281       -0.7535726934  MEMB      20              0.0000000000
      2443        20  POPE      H16Z          -14.9282682669       15.4777530324       -1.0493188769  MEMB      20              0.0000000000
      2444        21  OYPE      N              -3.6406472401       16.7796305876       19.6120648357  MEMB      21              0.0000000000
      2445        21  OYPE      HN1            -2.8694896510       16.4045261252       19.0247445810  MEMB      21              0.0000000000
      2446        21  OYPE      HN2            -4.1646260217       16.0093992214       20.0900203217  MEMB      21              0.0000000000
      2447        21  OYPE      HN3            -4.2842681745       17.3231473097       18.9949369780  MEMB      21              0.0000000000
      2448        21  OYPE      C12            -2.9808908866       17.6290865865       20.6712915356  MEMB      21              0.0000000000
      2449        21  OYPE      H12A           -2.8003663401       16.9490894540       21.5271869877  MEMB      21              0.0000000000
      2450        21  OYPE      H12B           -3.7016625086       18.4109824575       20.9797265911  MEMB      21              0.0000000000
      2451        21  OYPE      C11            -1.6396350012       18.2688070250       20.2200015523  MEMB      21              0.0000000000
      2452        21  OYPE      H11A           -0.8101905201       17.5405226050       20.3703699943  MEMB      21              0.0000000000
      2453        21  OYPE      H11B           -1.4065990950       19.1398086843       20.8843784443  MEMB      21              0.0000000000
      2454        21  OYPE      P              -2.3610033931       19.8942116085       18.2743361595  MEMB      21              0.0000000000
      2455        21  OYPE      O13            -3.5752310904       20.1373413805       19.0875223705  MEMB      21              0.0000000000
      2456        21  OYPE      O14            -2.5596937988       19.6288386332       16.8352351390  MEMB      21              0.0000000000
      2457        21  OYPE      O11            -1.2605870395       21.0212809490       18.5561729748  MEMB      21              0.0000000000
      2458        21  OYPE      O12            -1.6211334673       18.6168011233       18.8477827125  MEMB      21              0.0000000000
      2459        21  OYPE      C1              0.1242110024       20.7116106945       18.3029823537  MEMB      21              0.0000000000
      2460        21  OYPE      HA              0.2444027226       19.9505342327       17.4923776464  MEMB      21              0.0000000000
      2461        21  OYPE      HB              0.6028902579       20.2959379328       19.2134138120  MEMB      21              0.0000000000
      2462        21  OYPE      C2              0.9032535673       21.9830622658       17.8696386388  MEMB      21              0.0000000000
      2463        21  OYPE      HS              1.0221096314       22.6023339188       18.7799846516  MEMB      21              0.0000000000
      2464        21  OYPE      O21             0.1745728423       22.6421958101       16.8498587379  MEMB      21              0.0000000000
      2465        21  OYPE      C21            -0.6100692423       23.5830522509       17.2263757291  MEMB      21              0.0000000000
      2466        21  OYPE      O22            -0.6295296098       24.1361986467       18.3301691155  MEMB      21              0.0000000000
      2467        21  OYPE      C22            -1.5013486436       23.9784454905       16.0565946803  MEMB      21              0.0000000000
      2468        21  OYPE      H2R            -0.9609144363       24.8364056435       15.6074582122  MEMB      21              0.0000000000
      2469        21  OYPE      H2S            -2.4583302875       24.3296191070       16.4927716951  MEMB      21              0.0000000000
      2470        21  OYPE      C3              2.2736857209       21.6885888899       17.2612321148  MEMB      21              0.0000000000
      2471        21  OYPE      HX              2.8897455498       21.1266221748       18.0065009118  MEMB      21              0.0000000000
      2472        21  OYPE      HY              2.8558718269       22.5819903279       16.9448598546  MEMB      21              0.0000000000
      2473        21  OYPE      O31             2.0065395868       20.8587750776       16.1514325849  MEMB      21              0.0000000000
      2474        21  OYPE      C31             1.9158758420       21.3173187378       14.8805963930  MEMB      21              0.0000000000
      2475        21  OYPE      O32             1.9718156532       22.4781020498       14.5612436731  MEMB      21              0.0000000000
      2476        21  OYPE      C32             1.8256034801       20.1888393358       13.8232252483  MEMB      21              0.0000000000
      2477        21  OYPE      H2X             2.8402171888       19.7866654061       13.4651097407  MEMB      21              0.0000000000
      2478        21  OYPE      H2Y             1.1857669888       19.3730389664       14.2265763503  MEMB      21              0.0000000000
      2479        21  OYPE      C23            -1.7939247810       22.8604544788       15.0113954487  MEMB      21              0.0000000000
      2480        21  OYPE      H3R            -2.2408445050       21.9666518496       15.4814187029  MEMB      21              0.0000000000
      2481        21  OYPE      H3S            -0.8720362108       22.5675611703       14.4559247258  MEMB      21              0.0000000000
      2482        21  OYPE      C24            -2.8320737047       23.2194387494       13.9685599680  MEMB      21              0.0000000000
      2483        21  OYPE      H4R            -2.1868109576       23.7981292605       13.2662185321  MEMB      21              0.0000000000
      2484        21  OYPE      H4S            -3.6911702885       23.7787019517       14.4196121494  MEMB      21              0.0000000000
      2485        21  OYPE      C25            -3.3374220070       22.0675958194       13.1147467277  MEMB      21              0.0000000000
      2486        21  OYPE      H5R            -3.9720874594       21.4146565390       13.7467366897  MEMB      21              0.0000000000
      2487        21  OYPE      H5S            -2.4164694879       21.5470718224       12.7634424457  MEMB      21              0.0000000000
      2488        21  OYPE      C26            -4.1323831935       22.4289616620       11.8520288126  MEMB      21              0.0000000000
      2489        21  OYPE      H6R            -3.5055989499       23.0961604388       11.2328709517  MEMB      21              0.0000000000
      2490        21  OYPE      H6S            -5.0848016017       22.9251363968       12.1570053319  MEMB      21              0.0000000000
      2491        21  OYPE      C27            -4.3715357262       21.1562444924       11.0456091526  MEMB      21              0.0000000000
      2492        21  OYPE      H7R            -5.1489288527       20.5930541683       11.5128971567  MEMB      21              0.0000000000
      2493        21  OYPE      H7S            -3.5166925813       20.4875211631       11.2051614002  MEMB      21              0.0000000000
      2494        21  OYPE      C28            -4.5777062247       21.2078033639        9.5268055330  MEMB      21              0.0000000000
      2495        21  OYPE      H8R            -4.8207771459       20.1529399533        9.2424842839  MEMB      21              0.0000000000
      2496        21  OYPE      H8S            -3.6679557021       21.5696626855        9.0631641314  MEMB      21              0.0000000000
      2497        21  OYPE      C29            -5.7024549167       21.9847375911        9.0206161552  MEMB      21              0.0000000000
      2498        21  OYPE      H9R            -6.3596221411       21.9373336801        9.8630948143  MEMB      21              0.0000000000
      2499        21  OYPE      C210           -5.9729935291       22.7179419999        7.9222853583  MEMB      21              0.0000000000
      2500        21  OYPE      H10R           -7.0114734523       23.0012012376        7.6277339923  MEMB      21              0.0000000000
      2501        21  OYPE      C211           -4.9537596181       22.8754295181        6.8777338372  MEMB      21              0.0000000000
      2502        21  OYPE      H11R           -3.9748958012       22.5707166465        7.2976065185  MEMB      21              0.0000000000
      2503        21  OYPE      H11S           -4.9287554372       23.9433651665        6.5985134457  MEMB      21              0.0000000000
      2504        21  OYPE      C212           -5.1755368366       22.1007089673        5.6179273019  MEMB      21              0.0000000000
      2505        21  OYPE      H12R           -6.2400326677       22.1655798913        5.2993355074  MEMB      21              0.0000000000
      2506        21  OYPE      H12S           -4.8702672439       21.0424418597        5.7932374424  MEMB      21              0.0000000000
      2507        21  OYPE      C213           -4.3711626070       22.7173572246        4.5100368838  MEMB      21              0.0000000000
      2508        21  OYPE      H13R           -3.3354253175       22.9348582518        4.8342558305  MEMB      21              0.0000000000
      2509        21  OYPE      H13S           -4.8811065173       23.6067479982        4.0559732620  MEMB      21              0.0000000000
      2510        21  OYPE      C214           -4.0730445845       21.7498508914        3.4273118853  MEMB      21              0.0000000000
      2511        21  OYPE      H14R           -3.5959618810       20.8083005931        3.7490877219  MEMB      21              0.0000000000
      2512        21  OYPE      H14S           -3.3176526874       22.2821693500        2.9046082984  MEMB      21              0.0000000000
      2513        21  OYPE      C215           -5.2973020959       21.4189236463        2.7219296531  MEMB      21              0.0000000000
      2514        21  OYPE      H15R           -6.0952288988       21.6766096893        3.4133003869  MEMB      21              0.0000000000
      2515        21  OYPE      H15S           -5.3497704939       20.4673712527        2.2572525996  MEMB      21              0.0000000000
      2516        21  OYPE      C216           -6.0386724413       21.9172134903        1.7662082241  MEMB      21              0.0000000000
      2517        21  OYPE      H16R           -6.9190048894       21.4174768573        1.3679725579  MEMB      21              0.0000000000
      2518        21  OYPE      H16S           -5.5154727878       21.7359793480        0.8369784498  MEMB      21              0.0000000000
      2519        21  OYPE      H16T           -6.2982083429       22.9054935054        2.1026017170  MEMB      21              0.0000000000
      2520        21  OYPE      C33             1.1324494908       20.5876168279       12.6513558250  MEMB      21              0.0000000000
      2521        21  OYPE      H3X             1.9381312585       21.2801847742       12.2358809219  MEMB      21              0.0000000000
      2522        21  OYPE      H3Y             0.1571271847       20.8042897353       13.0654838989  MEMB      21              0.0000000000
      2523        21  OYPE      C34             0.7269296784       19.4740666787       11.8255445692  MEMB      21              0.0000000000
      2524        21  OYPE      H4X             1.8007372619       19.5055134661       11.7773277226  MEMB      21              0.0000000000
      2525        21  OYPE      H4Y             0.4005217046       18.4379685375       12.0211135222  MEMB      21              0.0000000000
      2526        21  OYPE      C35             0.1494559988       19.6829800988       10.5289953644  MEMB      21              0.0000000000
      2527        21  OYPE      H5X             0.3139167001       18.8289024848        9.8561216945  MEMB      21              0.0000000000
      2528        21  OYPE      H5Y             0.4870474527       20.5660334406        9.9978101218  MEMB      21              0.0000000000
      2529        21  OYPE      C36            -1.2132757456       19.4015460556       10.7023782064  MEMB      21              0.0000000000
      2530        21  OYPE      H6X            -1.3969205913       18.5537160083       11.4433569130  MEMB      21              0.0000000000
      2531        21  OYPE      H6Y            -1.4783406527       20.3886704809       11.0852137704  MEMB      21              0.0000000000
      2532        21  OYPE      C37            -1.5901954415       19.0489962335        9.3118308243  MEMB      21              0.0000000000
      2533        21  OYPE      H7X            -1.3706220857       17.9282113254        9.2308552669  MEMB      21              0.0000000000
      2534        21  OYPE      H7Y            -2.6467518462       19.3249834751        9.2967954353  MEMB      21              0.0000000000
      2535        21  OYPE      C38            -0.8987207330       19.6355256195        8.0406025803  MEMB      21              0.0000000000
      2536        21  OYPE      H8X            -0.3486912412       20.5435807983        8.2755721483  MEMB      21              0.0000000000
      2537        21  OYPE      H8Y            -0.1651340489       18.8420257677        7.7595954172  MEMB      21              0.0000000000
      2538        21  OYPE      C39            -1.7740530595       19.9935793845        6.8761252540  MEMB      21              0.0000000000
      2539        21  OYPE      H9X            -2.6288151328       20.6278182714        7.0745986553  MEMB      21              0.0000000000
      2540        21  OYPE      C310           -1.7727862251       19.3186412867        5.7476839275  MEMB      21              0.0000000000
      2541        21  OYPE      H10X           -2.6103481973       19.3121251750        5.0342968203  MEMB      21              0.0000000000
      2542        21  OYPE      C311           -0.9188095102       18.1647491193        5.5541231536  MEMB      21              0.0000000000
      2543        21  OYPE      H11X           -0.7943074140       17.3830724624        6.3540199031  MEMB      21              0.0000000000
      2544        21  OYPE      H11Y           -1.4870517649       17.6959416439        4.8222241123  MEMB      21              0.0000000000
      2545        21  OYPE      C312            0.3827961043       18.4946113974        5.0394993695  MEMB      21              0.0000000000
      2546        21  OYPE      H12X            0.9123314888       17.6510522387        4.7632094907  MEMB      21              0.0000000000
      2547        21  OYPE      H12Y            0.8758065857       18.3679730843        5.9705861791  MEMB      21              0.0000000000
      2548        21  OYPE      C313            0.6078487485       19.7119823155        4.1479099480  MEMB      21              0.0000000000
      2549        21  OYPE      H13X            0.2080195782       20.6414889845        4.5128408863  MEMB      21              0.0000000000
      2550        21  OYPE      H13Y            1.6910510190       19.7679765268        4.3205510090  MEMB      21              0.0000000000
      2551        21  OYPE      C314            0.3134733041       19.6145833053        2.6344262250  MEMB      21              0.0000000000
      2552        21  OYPE      H14X            0.8009456733       18.6988663303        2.5520823438  MEMB      21              0.0000000000
      2553        21  OYPE      H14Y            0.9681264927       20.1501806724        1.9518658600  MEMB      21              0.0000000000
      2554        21  OYPE      C315           -1.1370090988       19.7026305412        2.1291405085  MEMB      21              0.0000000000
      2555        21  OYPE      H15X           -1.2360159021       20.7662500453        1.8804009375  MEMB      21              0.0000000000
      2556        21  OYPE      H15Y           -1.7335175455       19.4284921681        3.0193500323  MEMB      21              0.0000000000
      2557        21  OYPE      C316           -1.6580337375       18.9330920516        0.8838558452  MEMB      21              0.0000000000
      2558        21  OYPE      H16X           -2.5932113764       18.6797731777        0.7518100103  MEMB      21              0.0000000000
      2559        21  OYPE      H16Y           -1.6955832216       17.8837737056        1.0694664129  MEMB      21              0.0000000000
      2560        21  OYPE      C317           -1.1750276239       19.2064751940       -0.5471435967  MEMB      21              0.0000000000
      2561        21  OYPE      H17X           -0.1311036705       19.4051230418       -0.6334560774  MEMB      21              0.0000000000
      2562        21  OYPE      H17Y           -1.1777662193       20.2719564940       -0.6849502900  MEMB      21              0.0000000000
      2563        21  OYPE      C318           -1.5773034635       18.1549430053       -1.7205006865  MEMB      21              0.0000000000
      2564        21  OYPE      H18X           -1.4057387029       17.0862032305       -1.7448121064  MEMB      21              0.0000000000
      2565        21  OYPE      H18Y           -2.6486179665       18.2167106349       -1.7880930666  MEMB      21              0.0000000000
      2566        21  OYPE      H18Z           -1.0951519518       18.5239695015       -2.6560070468  MEMB      21              0.0000000000
      2567        22  PMPE      N              11.6023639346      -12.5840912567       19.4922766414  MEMB      22              0.0000000000
      2568        22  PMPE      HN1            11.2397402700      -13.0016722026       20.3723748057  MEMB      22              0.0000000000
      2569        22  PMPE      HN2            12.6368981547      -12.4087669924       19.5384083355  MEMB      22              0.0000000000
      2570        22  PMPE      HN3            11.0220551139      -11.7467668851       19.2203206676  MEMB      22              0.0000000000
      2571        22  PMPE      C12            11.4400053033      -13.5813043976       18.3970356117  MEMB      22              0.0000000000
      2572        22  PMPE      H12A           11.5240204299      -13.0383419215       17.4304616394  MEMB      22              0.0000000000
      2573        22  PMPE      H12B           10.4389287200      -14.0053862350       18.5044662203  MEMB      22              0.0000000000
      2574        22  PMPE      C11            12.5325431351      -14.6350418126       18.4967379776  MEMB      22              0.0000000000
      2575        22  PMPE      H11A           12.3228133011      -15.4123161167       17.7228222941  MEMB      22              0.0000000000
      2576        22  PMPE      H11B           12.5333344018      -15.1672559871       19.4772442082  MEMB      22              0.0000000000
      2577        22  PMPE      P              14.9439614869      -13.7886778514       19.2674532538  MEMB      22              0.0000000000
      2578        22  PMPE      O13            14.7745376803      -14.6478564748       20.4681143112  MEMB      22              0.0000000000
      2579        22  PMPE      O14            15.0165758951      -12.3483443300       19.5495327577  MEMB      22              0.0000000000
      2580        22  PMPE      O11            16.1638961976      -14.2775000731       18.4477989233  MEMB      22              0.0000000000
      2581        22  PMPE      O12            13.7652482498      -13.9910502181       18.2212888743  MEMB      22              0.0000000000
      2582        22  PMPE      C1             15.9800329846      -15.5048880069       17.7526760734  MEMB      22              0.0000000000
      2583        22  PMPE      HA             14.9394142702      -15.8102617818       17.4675743040  MEMB      22              0.0000000000
      2584        22  PMPE      HB             16.4167351025      -16.3417421445       18.3452255163  MEMB      22              0.0000000000
      2585        22  PMPE      C2             16.6549669683      -15.3081155778       16.4280815999  MEMB      22              0.0000000000
      2586        22  PMPE      HS             17.7083177872      -15.1510065298       16.7635516041  MEMB      22              0.0000000000
      2587        22  PMPE      O21            16.1284289567      -14.1293390035       15.7478008270  MEMB      22              0.0000000000
      2588        22  PMPE      C21            16.6354802704      -13.9419339700       14.5516460209  MEMB      22              0.0000000000
      2589        22  PMPE      O22            17.4535379165      -14.6288141262       14.0391838886  MEMB      22              0.0000000000
      2590        22  PMPE      C22            16.1114001567      -12.7977326120       13.7505749590  MEMB      22              0.0000000000
      2591        22  PMPE      H2R            15.9136558241      -11.9768847887       14.4541689816  MEMB      22              0.0000000000
      2592        22  PMPE      H2S            15.2005113945      -13.2265126434       13.2782736552  MEMB      22              0.0000000000
      2593        22  PMPE      C3             16.4092652321      -16.6439301472       15.6893489907  MEMB      22              0.0000000000
      2594        22  PMPE      HX             16.5174134101      -17.4228166420       16.4878031127  MEMB      22              0.0000000000
      2595        22  PMPE      HY             17.0550562498      -16.8680167548       14.8841231258  MEMB      22              0.0000000000
      2596        22  PMPE      O31            15.2595031947      -16.6846085260       14.9118869684  MEMB      22              0.0000000000
      2597        22  PMPE      C31            14.5164656153      -17.6821980169       15.2078485703  MEMB      22              0.0000000000
      2598        22  PMPE      O32            14.7514215147      -18.5730530298       15.9942521096  MEMB      22              0.0000000000
      2599        22  PMPE      C32            13.2696859624      -17.3568500766       14.4997233336  MEMB      22              0.0000000000
      2600        22  PMPE      H2X            13.0617854124      -16.2825867197       14.7287816088  MEMB      22              0.0000000000
      2601        22  PMPE      H2Y            12.4704610924      -17.9901814013       14.9134878684  MEMB      22              0.0000000000
      2602        22  PMPE      C23            17.1169482654      -12.3891051024       12.6275666241  MEMB      22              0.0000000000
      2603        22  PMPE      H3R            17.2472264970      -13.2406626180       11.9197970674  MEMB      22              0.0000000000
      2604        22  PMPE      H3S            18.1329465244      -12.1440814758       13.0155680520  MEMB      22              0.0000000000
      2605        22  PMPE      C24            16.6311030175      -11.2081156415       11.7908159788  MEMB      22              0.0000000000
      2606        22  PMPE      H4R            16.5087975351      -10.3106454799       12.4281496655  MEMB      22              0.0000000000
      2607        22  PMPE      H4S            15.6308985845      -11.4597528676       11.4048130462  MEMB      22              0.0000000000
      2608        22  PMPE      C25            17.5297274525      -10.9322079385       10.5857207780  MEMB      22              0.0000000000
      2609        22  PMPE      H5R            18.5570801094      -10.6403167760       10.9064958399  MEMB      22              0.0000000000
      2610        22  PMPE      H5S            17.1011251243      -10.1350143374        9.9439157378  MEMB      22              0.0000000000
      2611        22  PMPE      C26            17.7038444748      -12.1292789415        9.6877159966  MEMB      22              0.0000000000
      2612        22  PMPE      H6R            16.7649469845      -12.6224216608        9.3562218574  MEMB      22              0.0000000000
      2613        22  PMPE      H6S            18.3654986641      -12.8360647173       10.2160152487  MEMB      22              0.0000000000
      2614        22  PMPE      C27            18.4460869520      -11.7677816648        8.4610619972  MEMB      22              0.0000000000
      2615        22  PMPE      H7R            19.4494364289      -11.3652465636        8.7897800706  MEMB      22              0.0000000000
      2616        22  PMPE      H7S            17.9956816858      -10.9513661001        7.8677839809  MEMB      22              0.0000000000
      2617        22  PMPE      C28            18.4645345944      -13.0396198248        7.6083909979  MEMB      22              0.0000000000
      2618        22  PMPE      H8R            17.5344791436      -13.4301301496        7.1883624883  MEMB      22              0.0000000000
      2619        22  PMPE      H8S            19.0695301633      -13.8178329964        8.1396735647  MEMB      22              0.0000000000
      2620        22  PMPE      C29            19.2827899191      -12.6359141179        6.5268247618  MEMB      22              0.0000000000
      2621        22  PMPE      H9R            19.9958100441      -11.9774668318        7.0324451788  MEMB      22              0.0000000000
      2622        22  PMPE      C217           18.9289749348      -11.8585899211        5.2913319540  MEMB      22              0.0000000000
      2623        22  PMPE      H17R           19.7659032173      -11.2191717907        4.9975142254  MEMB      22              0.0000000000
      2624        22  PMPE      H17S           17.9132091565      -11.6463548958        5.1697317294  MEMB      22              0.0000000000
      2625        22  PMPE      C210           19.2664290045      -13.3308169979        5.1737975175  MEMB      22              0.0000000000
      2626        22  PMPE      H10R           20.1222319800      -13.7581184203        4.6930544059  MEMB      22              0.0000000000
      2627        22  PMPE      C211           18.4114977700      -14.4465010006        4.8915723247  MEMB      22              0.0000000000
      2628        22  PMPE      H11R           17.4332153068      -14.1750312442        5.2403733833  MEMB      22              0.0000000000
      2629        22  PMPE      H11S           18.8881565697      -15.3447302522        5.4000179273  MEMB      22              0.0000000000
      2630        22  PMPE      C212           18.4826788898      -14.6154840452        3.3734221511  MEMB      22              0.0000000000
      2631        22  PMPE      H12R           19.5132874836      -14.9705497920        3.2064687146  MEMB      22              0.0000000000
      2632        22  PMPE      H12S           18.5232555246      -13.7382488967        2.7319429943  MEMB      22              0.0000000000
      2633        22  PMPE      C213           17.2711746847      -15.4484648894        3.0041720543  MEMB      22              0.0000000000
      2634        22  PMPE      H13R           16.4124212145      -14.8260279830        3.2793479775  MEMB      22              0.0000000000
      2635        22  PMPE      H13S           17.2992204757      -16.3228564872        3.7019651053  MEMB      22              0.0000000000
      2636        22  PMPE      C214           16.9110665099      -15.9413908086        1.5915403790  MEMB      22              0.0000000000
      2637        22  PMPE      H14R           16.0182535134      -16.5527786965        1.5364777753  MEMB      22              0.0000000000
      2638        22  PMPE      H14S           17.5661102273      -16.7890381793        1.5346162028  MEMB      22              0.0000000000
      2639        22  PMPE      C215           17.2762846445      -15.3077043885        0.2669699455  MEMB      22              0.0000000000
      2640        22  PMPE      H15R           17.5412868195      -16.1918853662       -0.4004929533  MEMB      22              0.0000000000
      2641        22  PMPE      H15S           18.0884587158      -14.5773757963        0.3457111574  MEMB      22              0.0000000000
      2642        22  PMPE      C216           16.5274024372      -14.3436270216       -0.4583297046  MEMB      22              0.0000000000
      2643        22  PMPE      H16R           17.1908865120      -14.0590588348       -1.3184767125  MEMB      22              0.0000000000
      2644        22  PMPE      H16S           15.6729907532      -14.9776447395       -0.7281324459  MEMB      22              0.0000000000
      2645        22  PMPE      H16T           16.4763025417      -13.5209546092        0.2923417092  MEMB      22              0.0000000000
      2646        22  PMPE      C33            13.5929955200      -17.5877343470       13.0232660288  MEMB      22              0.0000000000
      2647        22  PMPE      H3X            14.1188443457      -18.5556270835       12.9045862467  MEMB      22              0.0000000000
      2648        22  PMPE      H3Y            14.2914988502      -16.8094251333       12.6271784593  MEMB      22              0.0000000000
      2649        22  PMPE      C34            12.3220082286      -17.6919125075       12.2343876261  MEMB      22              0.0000000000
      2650        22  PMPE      H4X            11.5767764236      -18.3426829509       12.7431339170  MEMB      22              0.0000000000
      2651        22  PMPE      H4Y            12.4955376291      -18.1065559711       11.2123204624  MEMB      22              0.0000000000
      2652        22  PMPE      C35            11.7463008301      -16.3226067341       12.0383342113  MEMB      22              0.0000000000
      2653        22  PMPE      H5X            11.4932437504      -15.7407019389       12.9436177505  MEMB      22              0.0000000000
      2654        22  PMPE      H5Y            10.7551270199      -16.6816888636       11.6654873494  MEMB      22              0.0000000000
      2655        22  PMPE      C36            12.7355475533      -15.5300007546       11.1183966957  MEMB      22              0.0000000000
      2656        22  PMPE      H6X            12.9894270502      -16.1684016923       10.2377301942  MEMB      22              0.0000000000
      2657        22  PMPE      H6Y            13.5935683744      -15.1828163674       11.7175168614  MEMB      22              0.0000000000
      2658        22  PMPE      C37            12.3530455531      -14.2077350570       10.4946302351  MEMB      22              0.0000000000
      2659        22  PMPE      H7X            11.6895188120      -13.6335120813       11.1377228742  MEMB      22              0.0000000000
      2660        22  PMPE      H7Y            11.8143508874      -14.6465900641        9.6591448728  MEMB      22              0.0000000000
      2661        22  PMPE      C38            12.9765120082      -13.6128570157        9.2781989967  MEMB      22              0.0000000000
      2662        22  PMPE      H8X            13.0876815051      -14.2923382334        8.3905245553  MEMB      22              0.0000000000
      2663        22  PMPE      H8Y            13.9629716560      -13.3332670836        9.6403618253  MEMB      22              0.0000000000
      2664        22  PMPE      C39            12.1593783786      -12.4655511774        8.7420657840  MEMB      22              0.0000000000
      2665        22  PMPE      H9X            11.6806634619      -11.8725179512        9.5066035237  MEMB      22              0.0000000000
      2666        22  PMPE      H9Y            11.2148777539      -12.5001644559        8.2969806311  MEMB      22              0.0000000000
      2667        22  PMPE      C310           12.9443461099      -11.8330157682        7.5774187310  MEMB      22              0.0000000000
      2668        22  PMPE      H10X           12.1473310155      -11.2065081234        7.1321900578  MEMB      22              0.0000000000
      2669        22  PMPE      H10Y           13.2765025343      -12.6497449631        7.0390178708  MEMB      22              0.0000000000
      2670        22  PMPE      C311           14.4488475646      -11.4984210072        7.5481638665  MEMB      22              0.0000000000
      2671        22  PMPE      H11X           14.9315202189      -12.2536573902        8.1843797330  MEMB      22              0.0000000000
      2672        22  PMPE      H11Y           14.6615936537      -10.4971066282        7.9023102319  MEMB      22              0.0000000000
      2673        22  PMPE      C312           15.2732273436      -11.2184535225        6.3667989778  MEMB      22              0.0000000000
      2674        22  PMPE      H12X           15.4795601875      -12.1795617192        5.8839662851  MEMB      22              0.0000000000
      2675        22  PMPE      H12Y           16.2091214118      -10.7732977672        6.8273953470  MEMB      22              0.0000000000
      2676        22  PMPE      C313           14.7414155939      -10.1627961744        5.4576311710  MEMB      22              0.0000000000
      2677        22  PMPE      H13X           14.5868208845       -9.1591139683        5.9223657622  MEMB      22              0.0000000000
      2678        22  PMPE      H13Y           13.8284073269      -10.4420260318        4.9088393303  MEMB      22              0.0000000000
      2679        22  PMPE      C314           15.8449405729       -9.8860944958        4.5525196330  MEMB      22              0.0000000000
      2680        22  PMPE      H14X           16.7299419770       -9.7864050068        5.2278274680  MEMB      22              0.0000000000
      2681        22  PMPE      H14Y           15.4537496968       -8.9588323428        4.1563395592  MEMB      22              0.0000000000
      2682        22  PMPE      C315           15.8593171039      -10.8895787214        3.4310141084  MEMB      22              0.0000000000
      2683        22  PMPE      H15X           14.8343195550      -10.7753353018        3.0081766498  MEMB      22              0.0000000000
      2684        22  PMPE      H15Y           16.1018073568      -11.8786586702        3.8414620256  MEMB      22              0.0000000000
      2685        22  PMPE      C316           16.8097715565      -10.7049500411        2.3056040115  MEMB      22              0.0000000000
      2686        22  PMPE      H16X           16.3389718748       -9.9425437616        1.6404964074  MEMB      22              0.0000000000
      2687        22  PMPE      H16Y           16.9943245366      -11.4727969190        1.5639425970  MEMB      22              0.0000000000
      2688        22  PMPE      H16Z           17.7954178497      -10.4127250534        2.7607622608  MEMB      22              0.0000000000
      2689        23  PYPG      C13           -13.3696112025      -13.0910162246       20.5081781885  MEMB      23              0.0000000000
      2690        23  PYPG      H13A          -13.0468152881      -14.0576978953       20.9633512148  MEMB      23              0.0000000000
      2691        23  PYPG      H13B          -12.7970728208      -12.9651219352       19.5678807993  MEMB      23              0.0000000000
      2692        23  PYPG      OC3           -13.0618368893      -11.9600877700       21.3334278960  MEMB      23              0.0000000000
      2693        23  PYPG      HO3           -13.7010498313      -11.3270646888       21.0143378077  MEMB      23              0.0000000000
      2694        23  PYPG      C12           -14.8717736744      -13.1393857853       20.0933837659  MEMB      23              0.0000000000
      2695        23  PYPG      H12A          -15.0436704250      -12.3542360722       19.3255189110  MEMB      23              0.0000000000
      2696        23  PYPG      OC2           -15.7417234860      -12.8247696651       21.1860838683  MEMB      23              0.0000000000
      2697        23  PYPG      HO2           -16.6200937042      -13.0653055062       20.8698253803  MEMB      23              0.0000000000
      2698        23  PYPG      C11           -15.2183714285      -14.5208975739       19.4807380817  MEMB      23              0.0000000000
      2699        23  PYPG      H11A          -16.3129376423      -14.7143376999       19.5637054082  MEMB      23              0.0000000000
      2700        23  PYPG      H11B          -14.6519469743      -15.2589137947       20.0970938649  MEMB      23              0.0000000000
      2701        23  PYPG      P             -14.7816595831      -16.0575607952       17.4092980388  MEMB      23              0.0000000000
      2702        23  PYPG      O13           -14.8118042223      -15.8044939475       15.9519808631  MEMB      23              0.0000000000
      2703        23  PYPG      O14           -15.8653164408      -16.9111619049       17.9684278663  MEMB      23              0.0000000000
      2704        23  PYPG      O11           -13.3717549856      -16.6500660829       17.8178929542  MEMB      23              0.0000000000
      2705        23  PYPG      O12           -14.8061786347      -14.6115073080       18.1123392960  MEMB      23              0.0000000000
      2706        23  PYPG      C1            -12.1962971318      -15.8458947858       17.8972326977  MEMB      23              0.0000000000
      2707        23  PYPG      HA            -11.5613883106      -16.3073669656       18.6805191185  MEMB      23              0.0000000000
      2708        23  PYPG      HB            -12.4069350192      -14.8130620483       18.2546383139  MEMB      23              0.0000000000
      2709        23  PYPG      C2            -11.3484436134      -15.8041851852       16.5731590215  MEMB      23              0.0000000000
      2710        23  PYPG      HS            -10.4077751553      -15.2827436106       16.8482371559  MEMB      23              0.0000000000
      2711        23  PYPG      O21           -12.0500985125      -15.0519950135       15.5625338475  MEMB      23              0.0000000000
      2712        23  PYPG      C21           -11.5351568187      -14.8387211999       14.3592101362  MEMB      23              0.0000000000
      2713        23  PYPG      O22           -10.3690718241      -14.9677709088       14.0481691119  MEMB      23              0.0000000000
      2714        23  PYPG      C22           -12.6358757613      -14.3403591899       13.4126071970  MEMB      23              0.0000000000
      2715        23  PYPG      H2R           -13.0413943746      -13.4077863921       13.8555566868  MEMB      23              0.0000000000
      2716        23  PYPG      H2S           -13.4674424776      -15.0742659967       13.3969507547  MEMB      23              0.0000000000
      2717        23  PYPG      C3            -11.0138226970      -17.2403803947       16.0625495092  MEMB      23              0.0000000000
      2718        23  PYPG      HX            -10.6925459681      -17.8869172885       16.8952663031  MEMB      23              0.0000000000
      2719        23  PYPG      HY            -10.1380461505      -17.1911263848       15.3790718708  MEMB      23              0.0000000000
      2720        23  PYPG      O31           -12.1689741898      -17.8763081914       15.5039621777  MEMB      23              0.0000000000
      2721        23  PYPG      C31           -12.1290492781      -18.1427235966       14.2332874235  MEMB      23              0.0000000000
      2722        23  PYPG      O32           -11.1828848802      -17.9816335034       13.4822850897  MEMB      23              0.0000000000
      2723        23  PYPG      C32           -13.4141195759      -18.7836046287       13.7987271601  MEMB      23              0.0000000000
      2724        23  PYPG      H2X           -13.2787280285      -19.8865844245       13.8342040988  MEMB      23              0.0000000000
      2725        23  PYPG      H2Y           -14.2488992255      -18.5104467244       14.4776307878  MEMB      23              0.0000000000
      2726        23  PYPG      C23           -12.1016902506      -14.1048777215       11.9760413473  MEMB      23              0.0000000000
      2727        23  PYPG      H3R           -11.9102378665      -15.0805947945       11.4694514648  MEMB      23              0.0000000000
      2728        23  PYPG      H3S           -11.1506540152      -13.5251133142       12.0013482088  MEMB      23              0.0000000000
      2729        23  PYPG      C24           -13.0899798153      -13.3056875384       11.1430622531  MEMB      23              0.0000000000
      2730        23  PYPG      H4R           -12.5753908186      -12.8639740370       10.2572425588  MEMB      23              0.0000000000
      2731        23  PYPG      H4S           -13.4457608580      -12.4672725208       11.7829896652  MEMB      23              0.0000000000
      2732        23  PYPG      C25           -14.2061014671      -14.2260078309       10.6407676438  MEMB      23              0.0000000000
      2733        23  PYPG      H5R           -14.7160904204      -14.7549629188       11.4693801963  MEMB      23              0.0000000000
      2734        23  PYPG      H5S           -13.7282202081      -14.9732795700        9.9699508604  MEMB      23              0.0000000000
      2735        23  PYPG      C26           -15.1897741596      -13.4971190348        9.7702450833  MEMB      23              0.0000000000
      2736        23  PYPG      H6R           -14.5189721255      -12.8876112212        9.1205022228  MEMB      23              0.0000000000
      2737        23  PYPG      H6S           -15.8451782941      -12.8261525609       10.3441165787  MEMB      23              0.0000000000
      2738        23  PYPG      C27           -16.0977441471      -14.3520107500        8.9003441294  MEMB      23              0.0000000000
      2739        23  PYPG      H7R           -16.9657106387      -13.7252645841        8.5752723446  MEMB      23              0.0000000000
      2740        23  PYPG      H7S           -16.5437354416      -15.1588671035        9.5179955817  MEMB      23              0.0000000000
      2741        23  PYPG      C28           -15.2838337071      -15.0036429311        7.7455105683  MEMB      23              0.0000000000
      2742        23  PYPG      H8R           -16.0377977797      -15.4655711489        7.0513081441  MEMB      23              0.0000000000
      2743        23  PYPG      H8S           -14.6677302799      -15.7445326633        8.2313625988  MEMB      23              0.0000000000
      2744        23  PYPG      C29           -14.1782707519      -14.2483248222        7.0574585504  MEMB      23              0.0000000000
      2745        23  PYPG      H9R           -13.1702124824      -14.5908236816        6.8631561641  MEMB      23              0.0000000000
      2746        23  PYPG      C210          -14.5541795518      -13.4636786695        6.1018936371  MEMB      23              0.0000000000
      2747        23  PYPG      H10R          -13.8962350022      -12.5972850521        5.8605464565  MEMB      23              0.0000000000
      2748        23  PYPG      C211          -15.9977442325      -13.3656242504        5.7493343582  MEMB      23              0.0000000000
      2749        23  PYPG      H11R          -15.6398611604      -12.6241967872        6.6205349456  MEMB      23              0.0000000000
      2750        23  PYPG      H11S          -16.6974664600      -13.4811063757        6.5838558903  MEMB      23              0.0000000000
      2751        23  PYPG      C212          -16.7660793922      -12.7531884351        4.1337807857  MEMB      23              0.0000000000
      2752        23  PYPG      H12R          -17.6805520821      -12.3957391350        4.5839146979  MEMB      23              0.0000000000
      2753        23  PYPG      H12S          -17.2608434077      -13.3974286194        3.4502169667  MEMB      23              0.0000000000
      2754        23  PYPG      C213          -16.1924823213      -11.5214013423        2.9520287797  MEMB      23              0.0000000000
      2755        23  PYPG      H13R          -15.5935909273      -12.2824810656        3.0296010972  MEMB      23              0.0000000000
      2756        23  PYPG      H13S          -15.8853022236      -10.3708085803        2.9707705035  MEMB      23              0.0000000000
      2757        23  PYPG      C214          -16.2415108732      -10.6332663512        1.7687035161  MEMB      23              0.0000000000
      2758        23  PYPG      H14R          -17.2093879062      -10.0597968149        1.9129611143  MEMB      23              0.0000000000
      2759        23  PYPG      H14S          -15.3179844044       -9.8952276553        1.5226067134  MEMB      23              0.0000000000
      2760        23  PYPG      C215          -16.2215757685      -11.7671072823        1.0105764208  MEMB      23              0.0000000000
      2761        23  PYPG      H15R          -17.1464197606      -12.3034798908        1.3686057829  MEMB      23              0.0000000000
      2762        23  PYPG      H15S          -15.3097395392      -12.4048828954        1.1840996893  MEMB      23              0.0000000000
      2763        23  PYPG      C216          -16.2502891850      -11.1956796947       -0.3002801419  MEMB      23              0.0000000000
      2764        23  PYPG      H16R          -15.2247220057      -10.9143406033       -0.5907041174  MEMB      23              0.0000000000
      2765        23  PYPG      H16S          -16.9650130532      -10.3498258123       -0.3587146039  MEMB      23              0.0000000000
      2766        23  PYPG      H16T          -16.6018511470      -12.0089122052       -0.8729853633  MEMB      23              0.0000000000
      2767        23  PYPG      C33           -13.6104138931      -18.2771639597       12.3790594215  MEMB      23              0.0000000000
      2768        23  PYPG      H3X           -12.8328322068      -18.6735475268       11.6840487685  MEMB      23              0.0000000000
      2769        23  PYPG      H3Y           -13.7110091493      -17.1718334328       12.2875347235  MEMB      23              0.0000000000
      2770        23  PYPG      C34           -14.8839354335      -18.7004839407       11.8086100509  MEMB      23              0.0000000000
      2771        23  PYPG      H4X           -15.6772511864      -18.2510115122       12.4514537919  MEMB      23              0.0000000000
      2772        23  PYPG      H4Y           -14.8680520561      -19.8116080919       11.9843062331  MEMB      23              0.0000000000
      2773        23  PYPG      C35           -14.9099795776      -18.1190894537       10.3604166304  MEMB      23              0.0000000000
      2774        23  PYPG      H5X           -14.1480676301      -18.6355987902        9.7115544542  MEMB      23              0.0000000000
      2775        23  PYPG      H5Y           -15.1694523038      -17.0593807846       10.2775249179  MEMB      23              0.0000000000
      2776        23  PYPG      C36           -16.1332912350      -18.4927079345        9.6870442618  MEMB      23              0.0000000000
      2777        23  PYPG      H6X           -16.7860732418      -18.6037424601       10.3721714195  MEMB      23              0.0000000000
      2778        23  PYPG      H6Y           -15.8504709706      -19.4922539065        9.9604093112  MEMB      23              0.0000000000
      2779        23  PYPG      C37           -17.0262852415      -17.9982169523        8.5156206574  MEMB      23              0.0000000000
      2780        23  PYPG      H7X           -17.8538942127      -18.7337258843        8.2339416289  MEMB      23              0.0000000000
      2781        23  PYPG      H7Y           -17.7534263454      -17.2128022288        8.6960574283  MEMB      23              0.0000000000
      2782        23  PYPG      C38           -16.1960921428      -17.8849342669        7.3037108874  MEMB      23              0.0000000000
      2783        23  PYPG      H8X           -15.5733878424      -18.7674186757        7.2380018696  MEMB      23              0.0000000000
      2784        23  PYPG      H8Y           -15.2335986971      -17.4260358706        7.4741340617  MEMB      23              0.0000000000
      2785        23  PYPG      C39           -17.1906503691      -17.6031232526        6.1691204859  MEMB      23              0.0000000000
      2786        23  PYPG      H9X           -17.6517540092      -16.6335671048        6.3176880810  MEMB      23              0.0000000000
      2787        23  PYPG      H9Y           -17.8992522347      -18.4529937732        6.0408784100  MEMB      23              0.0000000000
      2788        23  PYPG      C310          -16.5818604852      -17.4640497091        4.8641948341  MEMB      23              0.0000000000
      2789        23  PYPG      H10X          -16.8187707342      -18.4702532795        4.2910554770  MEMB      23              0.0000000000
      2790        23  PYPG      H10Y          -15.5588736128      -17.1522065174        5.2206971697  MEMB      23              0.0000000000
      2791        23  PYPG      C311          -16.7772930739      -16.5919382477        3.8334820506  MEMB      23              0.0000000000
      2792        23  PYPG      H11X          -17.2494802298      -15.7064553675        4.1716559520  MEMB      23              0.0000000000
      2793        23  PYPG      H11Y          -17.5231503063      -17.2170822498        3.3791769246  MEMB      23              0.0000000000
      2794        23  PYPG      C312          -15.5971667317      -16.3996948118        2.8756279956  MEMB      23              0.0000000000
      2795        23  PYPG      H12X          -14.9743651742      -15.5422404649        2.9460244306  MEMB      23              0.0000000000
      2796        23  PYPG      H12Y          -14.9550813059      -17.2271340224        2.5376736673  MEMB      23              0.0000000000
      2797        23  PYPG      C313          -16.2668624469      -16.2455052719        1.6625546955  MEMB      23              0.0000000000
      2798        23  PYPG      H13X          -16.3002147352      -17.3977771929        1.4833775858  MEMB      23              0.0000000000
      2799        23  PYPG      H13Y          -17.2565269190      -16.0061067657        1.9901174329  MEMB      23              0.0000000000
      2800        23  PYPG      C314          -16.0015255608      -14.9920551457        0.6426627852  MEMB      23              0.0000000000
      2801        23  PYPG      H14X          -15.9757907687      -14.2521318874        1.4381306289  MEMB      23              0.0000000000
      2802        23  PYPG      H14Y          -15.0042214121      -15.0778319797        0.1638113011  MEMB      23              0.0000000000
      2803        23  PYPG      C315          -16.9863219618      -14.3618187372       -0.5563815033  MEMB      23              0.0000000000
      2804        23  PYPG      H15X          -17.9637041533      -14.0625421239       -0.1278542873  MEMB      23              0.0000000000
      2805        23  PYPG      H15Y          -16.4144377938      -13.6939273156       -1.1884605753  MEMB      23              0.0000000000
      2806        23  PYPG      C316          -17.6761351778      -14.9624155976       -1.8247877880  MEMB      23              0.0000000000
      2807        23  PYPG      H16X          -17.5588612577      -14.5637455114       -2.8203548545  MEMB      23              0.0000000000
      2808        23  PYPG      H16Y          -18.3734214000      -15.7415101929       -1.7891755460  MEMB      23              0.0000000000
      2809        23  PYPG      H16Z          -17.0744159962      -15.7537169578       -2.1399216898  MEMB      23              0.0000000000
      2810        24  PMPE      N              20.0315658604       -1.4132315745       21.5473635296  MEMB      24              0.0000000000
      2811        24  PMPE      HN1            20.5932301138       -1.0360686626       22.3337300533  MEMB      24              0.0000000000
      2812        24  PMPE      HN2            19.2453407797       -1.9990310017       21.8981477366  MEMB      24              0.0000000000
      2813        24  PMPE      HN3            20.6051023651       -1.9787797730       20.8780096644  MEMB      24              0.0000000000
      2814        24  PMPE      C12            19.6019883858       -0.2001621010       20.7730724718  MEMB      24              0.0000000000
      2815        24  PMPE      H12A           20.4350622310        0.5248376982       20.7676571953  MEMB      24              0.0000000000
      2816        24  PMPE      H12B           18.6947850917        0.2228255089       21.2487294223  MEMB      24              0.0000000000
      2817        24  PMPE      C11            19.3232424700       -0.5556885957       19.3324191650  MEMB      24              0.0000000000
      2818        24  PMPE      H11A           19.1208736991        0.3424832485       18.6910068085  MEMB      24              0.0000000000
      2819        24  PMPE      H11B           18.3944980405       -1.1065383197       19.4767173610  MEMB      24              0.0000000000
      2820        24  PMPE      P              21.5607749667       -0.9313421488       18.1210442373  MEMB      24              0.0000000000
      2821        24  PMPE      O13            22.1257641778       -1.9472619014       17.2395714306  MEMB      24              0.0000000000
      2822        24  PMPE      O14            22.3329326603       -0.3829759658       19.2628939641  MEMB      24              0.0000000000
      2823        24  PMPE      O11            20.8930622129        0.1624825572       17.2820792163  MEMB      24              0.0000000000
      2824        24  PMPE      O12            20.2556265262       -1.4787757800       18.7804183185  MEMB      24              0.0000000000
      2825        24  PMPE      C1             21.7527311578        0.9731445138       16.5735739899  MEMB      24              0.0000000000
      2826        24  PMPE      HA             22.1640751704        0.5341085924       15.6240958674  MEMB      24              0.0000000000
      2827        24  PMPE      HB             22.6137956491        1.4019759825       17.1715425956  MEMB      24              0.0000000000
      2828        24  PMPE      C2             20.8363765706        2.0004837470       16.1502991668  MEMB      24              0.0000000000
      2829        24  PMPE      HS             20.2636780744        2.5529039941       16.9710061969  MEMB      24              0.0000000000
      2830        24  PMPE      O21            19.9957354399        1.5487740973       15.1386224703  MEMB      24              0.0000000000
      2831        24  PMPE      C21            19.0058213156        2.2533593886       14.9148663206  MEMB      24              0.0000000000
      2832        24  PMPE      O22            18.5917029965        3.2461421746       15.5019303030  MEMB      24              0.0000000000
      2833        24  PMPE      C22            18.5108652146        1.6520304437       13.6723005658  MEMB      24              0.0000000000
      2834        24  PMPE      H2R            18.2535570451        0.5691356613       13.8411513301  MEMB      24              0.0000000000
      2835        24  PMPE      H2S            19.1370618552        1.5537497584       12.7798574119  MEMB      24              0.0000000000
      2836        24  PMPE      C3             21.9100285130        2.8002590433       15.6766989905  MEMB      24              0.0000000000
      2837        24  PMPE      HX             22.4767227919        3.1869403339       16.5615657529  MEMB      24              0.0000000000
      2838        24  PMPE      HY             21.1424901981        3.5746013399       15.7527488505  MEMB      24              0.0000000000
      2839        24  PMPE      O31            22.7187681469        2.4009344671       14.4157352239  MEMB      24              0.0000000000
      2840        24  PMPE      C31            23.2253980203        3.1779515526       13.3736478739  MEMB      24              0.0000000000
      2841        24  PMPE      O32            23.1498824237        4.3092095003       13.1874744011  MEMB      24              0.0000000000
      2842        24  PMPE      C32            23.8731491122        2.8843821491       12.0921633065  MEMB      24              0.0000000000
      2843        24  PMPE      H2X            23.8385631124        1.8283788104       12.1649947433  MEMB      24              0.0000000000
      2844        24  PMPE      H2Y            24.8039235731        3.5104083052       12.2573991339  MEMB      24              0.0000000000
      2845        24  PMPE      C23            17.4449281401        2.6699342806       13.3603383840  MEMB      24              0.0000000000
      2846        24  PMPE      H3R            16.9334847935        3.1188549723       14.1730442890  MEMB      24              0.0000000000
      2847        24  PMPE      H3S            16.9345945940        1.7573758643       12.9579231005  MEMB      24              0.0000000000
      2848        24  PMPE      C24            17.1633260267        4.1720363226       12.8759188764  MEMB      24              0.0000000000
      2849        24  PMPE      H4R            17.6338171772        4.8400673305       13.6055904972  MEMB      24              0.0000000000
      2850        24  PMPE      H4S            16.1777646462        4.6725478277       12.8977366186  MEMB      24              0.0000000000
      2851        24  PMPE      C25            17.0739424968        4.5403129811       11.3999046256  MEMB      24              0.0000000000
      2852        24  PMPE      H5R            16.2022753086        4.6174964334       10.7594046177  MEMB      24              0.0000000000
      2853        24  PMPE      H5S            17.5307037630        3.9580536507       10.5686745361  MEMB      24              0.0000000000
      2854        24  PMPE      C26            18.3355466126        4.3473471778       10.9728925208  MEMB      24              0.0000000000
      2855        24  PMPE      H6R            18.8414142573        4.1983846040       11.8390460492  MEMB      24              0.0000000000
      2856        24  PMPE      H6S            17.9935337291        5.4262785928       11.3483899259  MEMB      24              0.0000000000
      2857        24  PMPE      C27            19.2400481890        4.2050656471        9.5035983670  MEMB      24              0.0000000000
      2858        24  PMPE      H7R            20.0137387209        3.5175646826        9.7691270726  MEMB      24              0.0000000000
      2859        24  PMPE      H7S            20.2855624939        4.5380874710        9.2889654912  MEMB      24              0.0000000000
      2860        24  PMPE      C28            18.7728774608        4.4199678065        8.0901943288  MEMB      24              0.0000000000
      2861        24  PMPE      H8R            19.5896851516        5.0242220895        7.6674895673  MEMB      24              0.0000000000
      2862        24  PMPE      H8S            18.6551060489        5.3637885286        7.6655377199  MEMB      24              0.0000000000
      2863        24  PMPE      C29            17.7539843616        3.4344092765        7.4754200333  MEMB      24              0.0000000000
      2864        24  PMPE      H9R            16.8870483111        3.2520231478        8.0893590505  MEMB      24              0.0000000000
      2865        24  PMPE      C217           18.0477247138        2.2445191185        6.4862669786  MEMB      24              0.0000000000
      2866        24  PMPE      H17R           17.7812486328        1.2648889065        6.8011167978  MEMB      24              0.0000000000
      2867        24  PMPE      H17S           19.0082361539        1.9698654334        6.4337565562  MEMB      24              0.0000000000
      2868        24  PMPE      C210           17.4210281311        3.5685038902        6.0942804979  MEMB      24              0.0000000000
      2869        24  PMPE      H10R           16.5598853689        3.1097180685        5.7302802622  MEMB      24              0.0000000000
      2870        24  PMPE      C211           18.0584810959        4.7858411999        5.3479231578  MEMB      24              0.0000000000
      2871        24  PMPE      H11R           19.0920272865        5.0498564604        5.6458753875  MEMB      24              0.0000000000
      2872        24  PMPE      H11S           17.6418303259        5.6504003718        5.7764466846  MEMB      24              0.0000000000
      2873        24  PMPE      C212           17.7654153996        4.7511083487        3.7731586009  MEMB      24              0.0000000000
      2874        24  PMPE      H12R           17.9433476166        5.7231857670        3.3727156200  MEMB      24              0.0000000000
      2875        24  PMPE      H12S           16.7230818216        4.3297427513        3.9083439509  MEMB      24              0.0000000000
      2876        24  PMPE      C213           18.2088167437        3.7209938562        2.6064115137  MEMB      24              0.0000000000
      2877        24  PMPE      H13R           17.9422494819        3.0569600333        3.3486051392  MEMB      24              0.0000000000
      2878        24  PMPE      H13S           19.3542798645        3.8797009185        2.3222318340  MEMB      24              0.0000000000
      2879        24  PMPE      C214           19.2145421295        3.3586542135        1.4337641241  MEMB      24              0.0000000000
      2880        24  PMPE      H14R           19.0360821874        3.8098115935        0.4799649245  MEMB      24              0.0000000000
      2881        24  PMPE      H14S           18.2191440397        3.0357686063        1.4801736144  MEMB      24              0.0000000000
      2882        24  PMPE      C215           20.3719946866        2.3252101776        1.2764534396  MEMB      24              0.0000000000
      2883        24  PMPE      H15R           20.5568250894        1.4868754283        0.7167507622  MEMB      24              0.0000000000
      2884        24  PMPE      H15S           21.0295933891        1.6766721323        1.9037855826  MEMB      24              0.0000000000
      2885        24  PMPE      C216           21.0502635801        2.9760279525        0.2646019113  MEMB      24              0.0000000000
      2886        24  PMPE      H16R           22.0358394713        2.6104681927        0.4757357351  MEMB      24              0.0000000000
      2887        24  PMPE      H16S           20.7670768024        3.8750269872       -0.2392168715  MEMB      24              0.0000000000
      2888        24  PMPE      H16T           21.3294373041        3.6431032706        0.9788512232  MEMB      24              0.0000000000
      2889        24  PMPE      C33            23.3944164368        3.4522665066       10.6828132502  MEMB      24              0.0000000000
      2890        24  PMPE      H3X            23.5383165552        4.5420945315       10.3786843104  MEMB      24              0.0000000000
      2891        24  PMPE      H3Y            22.3938939317        3.2956785024       10.1910218310  MEMB      24              0.0000000000
      2892        24  PMPE      C34            23.9692393843        2.5861643125        9.8594737942  MEMB      24              0.0000000000
      2893        24  PMPE      H4X            24.9174015207        2.9928124552       10.2025808783  MEMB      24              0.0000000000
      2894        24  PMPE      H4Y            23.6485881953        3.1165230327        9.0004330093  MEMB      24              0.0000000000
      2895        24  PMPE      C35            23.8551379377        1.0709475308        9.9557039459  MEMB      24              0.0000000000
      2896        24  PMPE      H5X            24.4708310863        0.7271245906       10.7931248797  MEMB      24              0.0000000000
      2897        24  PMPE      H5Y            24.3184806787        0.6151383903        9.0542553726  MEMB      24              0.0000000000
      2898        24  PMPE      C36            22.4290338777        0.5984339744       10.0133564576  MEMB      24              0.0000000000
      2899        24  PMPE      H6X            22.0371801042        1.2678980452        9.3373899543  MEMB      24              0.0000000000
      2900        24  PMPE      H6Y            21.9086295469        0.8366834358       10.9473772842  MEMB      24              0.0000000000
      2901        24  PMPE      C37            22.1000793561       -0.6564474456        9.2264233687  MEMB      24              0.0000000000
      2902        24  PMPE      H7X            22.2260483846       -1.4403697528        9.9846144314  MEMB      24              0.0000000000
      2903        24  PMPE      H7Y            22.7336343249       -0.7373905197        8.3094670558  MEMB      24              0.0000000000
      2904        24  PMPE      C38            20.6873164130       -0.9545283927        8.8751786951  MEMB      24              0.0000000000
      2905        24  PMPE      H8X            20.3064040593       -0.2350569564        8.1701296380  MEMB      24              0.0000000000
      2906        24  PMPE      H8Y            20.2197125675       -0.9925538030        9.8760878005  MEMB      24              0.0000000000
      2907        24  PMPE      C39            20.2565071655       -2.2934723962        8.3787356266  MEMB      24              0.0000000000
      2908        24  PMPE      H9X            19.1579568418       -2.3499352266        8.5668314448  MEMB      24              0.0000000000
      2909        24  PMPE      H9Y            20.7830687816       -3.0702957979        8.9458476642  MEMB      24              0.0000000000
      2910        24  PMPE      C310           20.4050893964       -2.4867166018        6.9229211789  MEMB      24              0.0000000000
      2911        24  PMPE      H10X           19.8043251754       -3.3821862435        6.6189783542  MEMB      24              0.0000000000
      2912        24  PMPE      H10Y           21.4377874092       -2.5710709566        6.5635054339  MEMB      24              0.0000000000
      2913        24  PMPE      C311           19.8849384166       -1.3974670042        6.1107533904  MEMB      24              0.0000000000
      2914        24  PMPE      H11X           20.2508987716       -0.3535447484        6.1597787893  MEMB      24              0.0000000000
      2915        24  PMPE      H11Y           18.7735848494       -1.3950439814        6.3146070167  MEMB      24              0.0000000000
      2916        24  PMPE      C312           20.3546156556       -1.9814107966        4.7887790915  MEMB      24              0.0000000000
      2917        24  PMPE      H12X           19.7424623496       -2.8990957305        4.5426096266  MEMB      24              0.0000000000
      2918        24  PMPE      H12Y           21.2855971488       -1.6359558711        4.2685184122  MEMB      24              0.0000000000
      2919        24  PMPE      C313           19.7296395923       -1.4556252720        3.7691609968  MEMB      24              0.0000000000
      2920        24  PMPE      H13X           20.0720859140       -0.5117487693        3.2898244888  MEMB      24              0.0000000000
      2921        24  PMPE      H13Y           18.9156334432       -1.0280558410        4.4715965759  MEMB      24              0.0000000000
      2922        24  PMPE      C314           19.4094629565       -2.4488817558        2.5301783823  MEMB      24              0.0000000000
      2923        24  PMPE      H14X           20.2267608466       -2.2602166704        1.8254411663  MEMB      24              0.0000000000
      2924        24  PMPE      H14Y           18.6109599517       -2.1008557047        1.9016080044  MEMB      24              0.0000000000
      2925        24  PMPE      C315           18.1279693825       -3.3010222558        2.1621035119  MEMB      24              0.0000000000
      2926        24  PMPE      H15X           17.1273110474       -3.2290611827        2.6473483849  MEMB      24              0.0000000000
      2927        24  PMPE      H15Y           18.7828544697       -3.9169999412        2.7560712930  MEMB      24              0.0000000000
      2928        24  PMPE      C316           17.7597393025       -3.4490491230        0.6340231943  MEMB      24              0.0000000000
      2929        24  PMPE      H16X           17.1159870315       -4.2766195616        0.3757718950  MEMB      24              0.0000000000
      2930        24  PMPE      H16Y           18.5323426429       -3.1354497848       -0.1007544126  MEMB      24              0.0000000000
      2931        24  PMPE      H16Z           16.9133665901       -2.8171827244        0.3649481455  MEMB      24              0.0000000000
      2932        25  PMPE      N              17.3508937740        7.8377882669       21.4301687977  MEMB      25              0.0000000000
      2933        25  PMPE      HN1            16.8768298779        8.4590727360       20.7284494874  MEMB      25              0.0000000000
      2934        25  PMPE      HN2            17.2662933806        6.8580945888       21.1106375976  MEMB      25              0.0000000000
      2935        25  PMPE      HN3            16.8510749483        7.9840577789       22.3403002669  MEMB      25              0.0000000000
      2936        25  PMPE      C12            18.8284151245        8.1877216594       21.5486953494  MEMB      25              0.0000000000
      2937        25  PMPE      H12A           19.2292483457        7.8128982273       22.4991639841  MEMB      25              0.0000000000
      2938        25  PMPE      H12B           18.8902231582        9.2606059316       21.6423907664  MEMB      25              0.0000000000
      2939        25  PMPE      C11            19.7114882255        7.8353396324       20.3397740779  MEMB      25              0.0000000000
      2940        25  PMPE      H11A           19.8801610726        6.7384759593       20.3045560138  MEMB      25              0.0000000000
      2941        25  PMPE      H11B           20.7167789187        8.3104831441       20.5115881306  MEMB      25              0.0000000000
      2942        25  PMPE      P              19.8108065215        8.2061027966       17.7051014405  MEMB      25              0.0000000000
      2943        25  PMPE      O13            20.4015925998        9.5184612968       17.3599338720  MEMB      25              0.0000000000
      2944        25  PMPE      O14            18.9499696821        7.4997696464       16.7426557941  MEMB      25              0.0000000000
      2945        25  PMPE      O11            20.9199526680        7.2031656192       18.1191510237  MEMB      25              0.0000000000
      2946        25  PMPE      O12            19.0934758253        8.3118547005       19.1399609868  MEMB      25              0.0000000000
      2947        25  PMPE      C1             22.2286193359        7.6691408038       18.4112600005  MEMB      25              0.0000000000
      2948        25  PMPE      HA             22.7088947942        6.8854627975       19.0660713481  MEMB      25              0.0000000000
      2949        25  PMPE      HB             22.2723060728        8.6521717625       18.8815547731  MEMB      25              0.0000000000
      2950        25  PMPE      C2             23.1274223291        7.7724573008       17.1850984007  MEMB      25              0.0000000000
      2951        25  PMPE      HS             24.1349848095        7.9624218781       17.5642147580  MEMB      25              0.0000000000
      2952        25  PMPE      O21            22.7736667010        8.6784774034       16.0301637365  MEMB      25              0.0000000000
      2953        25  PMPE      C21            23.4904808546        9.3832084346       15.0818982301  MEMB      25              0.0000000000
      2954        25  PMPE      O22            24.6613777560        9.6429116559       14.9546126561  MEMB      25              0.0000000000
      2955        25  PMPE      C22            22.7335107354       10.1592438422       14.0919428891  MEMB      25              0.0000000000
      2956        25  PMPE      H2R            23.5562919790       10.5872484096       13.4521557604  MEMB      25              0.0000000000
      2957        25  PMPE      H2S            22.4211843310       10.9387674126       14.8092326195  MEMB      25              0.0000000000
      2958        25  PMPE      C3             23.0052286757        6.2979209702       16.8934392628  MEMB      25              0.0000000000
      2959        25  PMPE      HX             23.2502963575        5.4285154289       17.5674541035  MEMB      25              0.0000000000
      2960        25  PMPE      HY             24.0432612081        6.0129223881       16.6207095566  MEMB      25              0.0000000000
      2961        25  PMPE      O31            21.7426736174        6.2240422636       16.0592968207  MEMB      25              0.0000000000
      2962        25  PMPE      C31            22.0271478601        5.4349418371       15.1741658096  MEMB      25              0.0000000000
      2963        25  PMPE      O32            23.0920604452        4.8385284903       15.3562914234  MEMB      25              0.0000000000
      2964        25  PMPE      C32            20.7356476105        5.0279563505       14.2030971208  MEMB      25              0.0000000000
      2965        25  PMPE      H2X            20.4064920377        5.9083673902       13.7130347172  MEMB      25              0.0000000000
      2966        25  PMPE      H2Y            19.9378035398        4.8711521494       14.9430845956  MEMB      25              0.0000000000
      2967        25  PMPE      C23            21.5500166512        9.4654683438       13.3681659300  MEMB      25              0.0000000000
      2968        25  PMPE      H3R            20.8788227662       10.3261809310       13.3120014262  MEMB      25              0.0000000000
      2969        25  PMPE      H3S            21.1886576316        8.5852649507       13.9521765705  MEMB      25              0.0000000000
      2970        25  PMPE      C24            21.5722528190        9.0882642256       11.8844981307  MEMB      25              0.0000000000
      2971        25  PMPE      H4R            21.0304270435        8.3594085038       11.2760111399  MEMB      25              0.0000000000
      2972        25  PMPE      H4S            22.1226779762        8.1930729098       12.1575868589  MEMB      25              0.0000000000
      2973        25  PMPE      C25            22.1663614065       10.1512949420       10.9694226834  MEMB      25              0.0000000000
      2974        25  PMPE      H5R            23.0576442373       10.6269415824       11.4348288126  MEMB      25              0.0000000000
      2975        25  PMPE      H5S            21.6223016295       11.1005678221       10.9033773163  MEMB      25              0.0000000000
      2976        25  PMPE      C26            22.4942887137        9.4712268656        9.6247780504  MEMB      25              0.0000000000
      2977        25  PMPE      H6R            23.0374539728        8.5885664049        9.4574216456  MEMB      25              0.0000000000
      2978        25  PMPE      H6S            23.3888468835        9.8171438490        9.1466626710  MEMB      25              0.0000000000
      2979        25  PMPE      C27            21.4222679309        9.0907433517        8.7582399813  MEMB      25              0.0000000000
      2980        25  PMPE      H7R            20.7185069104        9.9401785476        8.8203452126  MEMB      25              0.0000000000
      2981        25  PMPE      H7S            21.1073491724        8.0559384210        8.9311281159  MEMB      25              0.0000000000
      2982        25  PMPE      C28            21.8752015583        8.9489748639        7.3890777526  MEMB      25              0.0000000000
      2983        25  PMPE      H8R            22.6788026517        9.6380089020        7.1257567098  MEMB      25              0.0000000000
      2984        25  PMPE      H8S            20.9368379536        9.0957955986        6.8588549300  MEMB      25              0.0000000000
      2985        25  PMPE      C29            22.4037054927        7.7819141682        6.8480844783  MEMB      25              0.0000000000
      2986        25  PMPE      H9R            22.1456086718        6.7641579950        7.1665018901  MEMB      25              0.0000000000
      2987        25  PMPE      C217           23.7990563026        7.8898574455        7.0251735758  MEMB      25              0.0000000000
      2988        25  PMPE      H17R           24.1623768845        6.9289940888        7.3493832960  MEMB      25              0.0000000000
      2989        25  PMPE      H17S           24.3295987482        8.8064232059        7.2935871592  MEMB      25              0.0000000000
      2990        25  PMPE      C210           23.2480797620        8.0801258150        5.6451300072  MEMB      25              0.0000000000
      2991        25  PMPE      H10R           23.1487381016        7.1620873504        5.0662439312  MEMB      25              0.0000000000
      2992        25  PMPE      C211           24.1349224978        9.3466441886        5.1704367118  MEMB      25              0.0000000000
      2993        25  PMPE      H11R           25.1003051231        9.2471213751        4.6566597538  MEMB      25              0.0000000000
      2994        25  PMPE      H11S           24.5097430287       10.1351937299        5.7996314407  MEMB      25              0.0000000000
      2995        25  PMPE      C212           23.6724463272        9.7434663513        3.9710892656  MEMB      25              0.0000000000
      2996        25  PMPE      H12R           22.7372133740        9.8666252695        4.3753162150  MEMB      25              0.0000000000
      2997        25  PMPE      H12S           23.1121918738        8.8807787797        3.5270348058  MEMB      25              0.0000000000
      2998        25  PMPE      C213           24.3330363764       11.0973683699        3.4302118455  MEMB      25              0.0000000000
      2999        25  PMPE      H13R           24.9099373295       11.6938048990        4.1359088567  MEMB      25              0.0000000000
      3000        25  PMPE      H13S           23.8059409060       12.0247623362        3.1282054424  MEMB      25              0.0000000000
      3001        25  PMPE      C214           24.6964307060       10.7619015772        2.0360584926  MEMB      25              0.0000000000
      3002        25  PMPE      H14R           24.3036751578        9.8069915931        1.6464955915  MEMB      25              0.0000000000
      3003        25  PMPE      H14S           25.5422304057       10.4649258889        2.6223475163  MEMB      25              0.0000000000
      3004        25  PMPE      C215           24.9258690153       11.8257908657        0.9276183714  MEMB      25              0.0000000000
      3005        25  PMPE      H15R           24.2123628428       11.8297784073        0.1070614543  MEMB      25              0.0000000000
      3006        25  PMPE      H15S           25.5438354401       11.4479774569        0.0901296755  MEMB      25              0.0000000000
      3007        25  PMPE      C216           25.3324984651       13.1998848694        1.5500637167  MEMB      25              0.0000000000
      3008        25  PMPE      H16R           25.2413556466       13.9842273300        0.7872950171  MEMB      25              0.0000000000
      3009        25  PMPE      H16S           24.6650920580       13.5508347504        2.3699500821  MEMB      25              0.0000000000
      3010        25  PMPE      H16T           26.3023638855       13.1454773227        2.0712105972  MEMB      25              0.0000000000
      3011        25  PMPE      C33            20.6233953117        3.7659044258       13.2094060730  MEMB      25              0.0000000000
      3012        25  PMPE      H3X            19.6955183769        3.3698130638       12.9890152212  MEMB      25              0.0000000000
      3013        25  PMPE      H3Y            20.9097139247        2.7162867940       13.4233807626  MEMB      25              0.0000000000
      3014        25  PMPE      C34            21.0725067996        3.9565043689       11.8352417526  MEMB      25              0.0000000000
      3015        25  PMPE      H4X            21.1897602431        2.9336366843       11.3866116185  MEMB      25              0.0000000000
      3016        25  PMPE      H4Y            21.9325475654        4.5066063983       11.6912767505  MEMB      25              0.0000000000
      3017        25  PMPE      C35            21.2164338748        5.4801964559       11.1795504935  MEMB      25              0.0000000000
      3018        25  PMPE      H5X            21.6754264605        5.6150427177       10.1573427415  MEMB      25              0.0000000000
      3019        25  PMPE      H5Y            21.4310959216        6.2783819994       11.9154159333  MEMB      25              0.0000000000
      3020        25  PMPE      C36            19.9603251120        6.2844310908       11.1595643251  MEMB      25              0.0000000000
      3021        25  PMPE      H6X            19.4597725265        6.0777555902       12.1271957584  MEMB      25              0.0000000000
      3022        25  PMPE      H6Y            20.1004007673        5.3001082995       11.0159982234  MEMB      25              0.0000000000
      3023        25  PMPE      C37            19.0051039095        6.6934273244        9.8717146886  MEMB      25              0.0000000000
      3024        25  PMPE      H7X            19.7190422171        6.6169507842        9.0299793292  MEMB      25              0.0000000000
      3025        25  PMPE      H7Y            18.8587638621        7.6400103964       10.3314891563  MEMB      25              0.0000000000
      3026        25  PMPE      C38            17.4297412924        6.1892984836        9.3647285043  MEMB      25              0.0000000000
      3027        25  PMPE      H8X            16.6382315232        6.3312489855       10.0970345943  MEMB      25              0.0000000000
      3028        25  PMPE      H8Y            17.0666640575        5.1539920039        9.1197522370  MEMB      25              0.0000000000
      3029        25  PMPE      C39            16.9106805863        6.5837376791        8.0667321774  MEMB      25              0.0000000000
      3030        25  PMPE      H9X            15.8774454176        6.2001730404        7.8401109837  MEMB      25              0.0000000000
      3031        25  PMPE      H9Y            17.5378916674        6.6272711102        7.1945901716  MEMB      25              0.0000000000
      3032        25  PMPE      C310           17.2065775203        7.8782186399        8.3794374399  MEMB      25              0.0000000000
      3033        25  PMPE      H10X           18.1834819059        8.3217437519        8.6246550666  MEMB      25              0.0000000000
      3034        25  PMPE      H10Y           16.5386503089        7.8962948992        9.2275735373  MEMB      25              0.0000000000
      3035        25  PMPE      C311           16.5460624596        8.5563486622        7.4257939198  MEMB      25              0.0000000000
      3036        25  PMPE      H11X           16.7687298710        9.5383393375        7.9148261514  MEMB      25              0.0000000000
      3037        25  PMPE      H11Y           15.4879374940        8.1392835298        7.4422208432  MEMB      25              0.0000000000
      3038        25  PMPE      C312           16.9451626775        8.9324464270        6.1003836891  MEMB      25              0.0000000000
      3039        25  PMPE      H12X           16.3567358643        9.8298597770        5.7680935791  MEMB      25              0.0000000000
      3040        25  PMPE      H12Y           16.7294498574        8.0847111127        5.4387276230  MEMB      25              0.0000000000
      3041        25  PMPE      C313           18.3181170747        9.4389718179        6.1636819798  MEMB      25              0.0000000000
      3042        25  PMPE      H13X           19.0068534508        8.6342719834        6.4841515001  MEMB      25              0.0000000000
      3043        25  PMPE      H13Y           18.3997350340       10.2962784715        6.8968768411  MEMB      25              0.0000000000
      3044        25  PMPE      C314           18.4868396351        9.8669434366        4.7351900922  MEMB      25              0.0000000000
      3045        25  PMPE      H14X           19.2356017110       10.5719526099        4.8963845308  MEMB      25              0.0000000000
      3046        25  PMPE      H14Y           17.6605645221       10.4929556731        4.3451821785  MEMB      25              0.0000000000
      3047        25  PMPE      C315           18.9871557838        8.7590381721        3.7997384861  MEMB      25              0.0000000000
      3048        25  PMPE      H15X           18.1928386945        8.0083316347        3.7400453855  MEMB      25              0.0000000000
      3049        25  PMPE      H15Y           19.8941260919        8.2933404781        4.2816613842  MEMB      25              0.0000000000
      3050        25  PMPE      C316           19.2679215864        9.1143993850        2.3256685044  MEMB      25              0.0000000000
      3051        25  PMPE      H16X           18.4837777285        9.6090084992        1.7469249027  MEMB      25              0.0000000000
      3052        25  PMPE      H16Y           20.0564141808        8.4812060573        1.8639275653  MEMB      25              0.0000000000
      3053        25  PMPE      H16Z           19.7283473067       10.0512525138        2.1729193075  MEMB      25              0.0000000000
      3054        26  PMPE      N               2.3133040798      -23.1505631260       21.5942986984  MEMB      26              0.0000000000
      3055        26  PMPE      HN1             2.2333281144      -22.4296205495       22.3435556876  MEMB      26              0.0000000000
      3056        26  PMPE      HN2             1.4482362330      -23.7380211737       21.5477605178  MEMB      26              0.0000000000
      3057        26  PMPE      HN3             3.1576722229      -23.7293887383       21.7935759343  MEMB      26              0.0000000000
      3058        26  PMPE      C12             2.3579354992      -22.5228466197       20.2322201538  MEMB      26              0.0000000000
      3059        26  PMPE      H12A            2.0794483017      -23.3162775374       19.5054578876  MEMB      26              0.0000000000
      3060        26  PMPE      H12B            3.3935933019      -22.1817917252       20.0277287722  MEMB      26              0.0000000000
      3061        26  PMPE      C11             1.2903141918      -21.4288537902       20.1313837815  MEMB      26              0.0000000000
      3062        26  PMPE      H11A            1.6660742822      -20.4921855003       20.6153288264  MEMB      26              0.0000000000
      3063        26  PMPE      H11B            0.3771782000      -21.7350244742       20.6848251850  MEMB      26              0.0000000000
      3064        26  PMPE      P              -0.4339249591      -21.7309846859       18.1041505722  MEMB      26              0.0000000000
      3065        26  PMPE      O13            -1.5192767654      -20.8638206685       18.6003714021  MEMB      26              0.0000000000
      3066        26  PMPE      O14            -0.5630668179      -23.1670241778       18.3492854173  MEMB      26              0.0000000000
      3067        26  PMPE      O11            -0.1028988381      -21.4233739081       16.5793315984  MEMB      26              0.0000000000
      3068        26  PMPE      O12             0.9496485879      -21.2225278106       18.7683683353  MEMB      26              0.0000000000
      3069        26  PMPE      C1              1.2417088988      -21.5564876806       16.0978464664  MEMB      26              0.0000000000
      3070        26  PMPE      HA              1.8011779800      -22.2949928145       16.7143884031  MEMB      26              0.0000000000
      3071        26  PMPE      HB              1.7954923266      -20.5828600089       16.1476208370  MEMB      26              0.0000000000
      3072        26  PMPE      C2              1.3031318081      -22.1135306949       14.6387759889  MEMB      26              0.0000000000
      3073        26  PMPE      HS              2.3631779768      -22.0108843411       14.2982054953  MEMB      26              0.0000000000
      3074        26  PMPE      O21             0.3951458570      -21.4900632626       13.7199880233  MEMB      26              0.0000000000
      3075        26  PMPE      C21             0.7567798377      -20.3094080130       13.3195983484  MEMB      26              0.0000000000
      3076        26  PMPE      O22             1.6659349043      -19.6383920669       13.7663635206  MEMB      26              0.0000000000
      3077        26  PMPE      C22             0.0482570646      -20.0519630714       11.9731414287  MEMB      26              0.0000000000
      3078        26  PMPE      H2R            -0.9470256542      -19.6241854978       12.1884322487  MEMB      26              0.0000000000
      3079        26  PMPE      H2S            -0.1522899770      -21.0236463205       11.4917934722  MEMB      26              0.0000000000
      3080        26  PMPE      C3              0.9768656639      -23.6226849105       14.5677994871  MEMB      26              0.0000000000
      3081        26  PMPE      HX             -0.0501804464      -23.7632712788       14.9805380332  MEMB      26              0.0000000000
      3082        26  PMPE      HY              1.6822412442      -24.1308976058       15.2579476766  MEMB      26              0.0000000000
      3083        26  PMPE      O31             1.0355087125      -24.1178954389       13.1960234539  MEMB      26              0.0000000000
      3084        26  PMPE      C31             2.2010328428      -24.6407525430       12.8128729348  MEMB      26              0.0000000000
      3085        26  PMPE      O32             3.1383394089      -24.8707610626       13.5592491366  MEMB      26              0.0000000000
      3086        26  PMPE      C32             2.2113385092      -24.9662807528       11.2936179664  MEMB      26              0.0000000000
      3087        26  PMPE      H2X             1.1659785185      -25.1665755883       10.9843278451  MEMB      26              0.0000000000
      3088        26  PMPE      H2Y             2.7839165280      -25.9137461705       11.2065801598  MEMB      26              0.0000000000
      3089        26  PMPE      C23             0.8967567345      -19.1362758553       11.0552773657  MEMB      26              0.0000000000
      3090        26  PMPE      H3R             1.9638358532      -19.4220466517       10.9778915979  MEMB      26              0.0000000000
      3091        26  PMPE      H3S             0.9120350450      -18.1207860593       11.5235022222  MEMB      26              0.0000000000
      3092        26  PMPE      C24             0.4550282807      -19.0146896468        9.5853580882  MEMB      26              0.0000000000
      3093        26  PMPE      H4R             1.0577098732      -18.1865890771        9.1641826287  MEMB      26              0.0000000000
      3094        26  PMPE      H4S            -0.6083060879      -18.7942231704        9.4313188920  MEMB      26              0.0000000000
      3095        26  PMPE      C25             0.1486590847      -20.2244951235        8.7544183691  MEMB      26              0.0000000000
      3096        26  PMPE      H5R            -0.7679107486      -20.7041626587        9.1962141714  MEMB      26              0.0000000000
      3097        26  PMPE      H5S             1.0187045014      -20.8742157527        8.8789150248  MEMB      26              0.0000000000
      3098        26  PMPE      C26            -0.1417663642      -19.8997933144        7.2826518365  MEMB      26              0.0000000000
      3099        26  PMPE      H6R             0.1083739854      -20.7861868495        6.6755088583  MEMB      26              0.0000000000
      3100        26  PMPE      H6S             0.3555151711      -19.0377991866        6.8300537443  MEMB      26              0.0000000000
      3101        26  PMPE      C27            -1.5469233121      -19.5612370588        6.9372296872  MEMB      26              0.0000000000
      3102        26  PMPE      H7R            -2.0000111148      -18.8325722536        7.6569439363  MEMB      26              0.0000000000
      3103        26  PMPE      H7S            -2.0662321943      -20.4878868254        7.1155868141  MEMB      26              0.0000000000
      3104        26  PMPE      C28            -1.6328677092      -19.2240617191        5.4367755856  MEMB      26              0.0000000000
      3105        26  PMPE      H8R            -1.4440057061      -20.0380332372        4.7425680967  MEMB      26              0.0000000000
      3106        26  PMPE      H8S            -0.9769929555      -18.3396757534        5.1931869784  MEMB      26              0.0000000000
      3107        26  PMPE      C29            -2.9330698205      -18.6069658483        5.3712469478  MEMB      26              0.0000000000
      3108        26  PMPE      H9R            -2.7062674755      -17.8229434665        6.0225988376  MEMB      26              0.0000000000
      3109        26  PMPE      C217           -4.2249208448      -18.7758499736        4.7179051897  MEMB      26              0.0000000000
      3110        26  PMPE      H17R           -5.2700494857      -19.0444323880        4.8018929534  MEMB      26              0.0000000000
      3111        26  PMPE      H17S           -3.8229743053      -19.4482527979        4.1780994611  MEMB      26              0.0000000000
      3112        26  PMPE      C210           -3.2708904984      -18.0895790507        3.9293022428  MEMB      26              0.0000000000
      3113        26  PMPE      H10R           -4.0665642453      -17.5109468758        3.9062313833  MEMB      26              0.0000000000
      3114        26  PMPE      C211           -2.9234884786      -18.7445972461        2.6118670251  MEMB      26              0.0000000000
      3115        26  PMPE      H11R           -3.6070076033      -18.6795080039        1.7251285545  MEMB      26              0.0000000000
      3116        26  PMPE      H11S           -2.5457368936      -19.7625294302        2.8223043724  MEMB      26              0.0000000000
      3117        26  PMPE      C212           -1.7724825755      -18.0432999698        2.4363122005  MEMB      26              0.0000000000
      3118        26  PMPE      H12R           -1.4367618882      -17.3191051716        3.2452287959  MEMB      26              0.0000000000
      3119        26  PMPE      H12S           -2.0378208353      -17.3369592660        1.6283829502  MEMB      26              0.0000000000
      3120        26  PMPE      C213           -0.7178975155      -19.0959843225        2.0975215198  MEMB      26              0.0000000000
      3121        26  PMPE      H13R           -0.2178362019      -19.5516627545        2.9388648708  MEMB      26              0.0000000000
      3122        26  PMPE      H13S            0.2091543577      -18.7078541595        2.0215467340  MEMB      26              0.0000000000
      3123        26  PMPE      C214           -0.8345127580      -19.9837787907        0.8570784060  MEMB      26              0.0000000000
      3124        26  PMPE      H14R           -1.6858871483      -20.6148870449        1.0295115117  MEMB      26              0.0000000000
      3125        26  PMPE      H14S            0.1260468052      -20.4547545773        0.6273830873  MEMB      26              0.0000000000
      3126        26  PMPE      C215           -1.0396913490      -19.4810219006       -0.5351203019  MEMB      26              0.0000000000
      3127        26  PMPE      H15R           -1.8379614034      -18.7834081914       -0.2135750704  MEMB      26              0.0000000000
      3128        26  PMPE      H15S           -1.5272209732      -20.2504598119       -1.0364052837  MEMB      26              0.0000000000
      3129        26  PMPE      C216            0.1682133356      -19.4136228594       -1.6119000845  MEMB      26              0.0000000000
      3130        26  PMPE      H16R            0.3533388606      -18.7761750270       -2.4596652338  MEMB      26              0.0000000000
      3131        26  PMPE      H16S           -0.0068854016      -18.3989945692       -1.4579011384  MEMB      26              0.0000000000
      3132        26  PMPE      H16T            1.2325590634      -19.3115746209       -1.5200242225  MEMB      26              0.0000000000
      3133        26  PMPE      C33             2.8438623353      -23.8728254778       10.3604242029  MEMB      26              0.0000000000
      3134        26  PMPE      H3X             3.8645337044      -23.5916149531       10.7041294304  MEMB      26              0.0000000000
      3135        26  PMPE      H3Y             2.2066941473      -22.9654261844       10.4473787571  MEMB      26              0.0000000000
      3136        26  PMPE      C34             2.9411676308      -24.2502760992        8.8527614450  MEMB      26              0.0000000000
      3137        26  PMPE      H4X             1.9416789455      -24.6018202123        8.5168452029  MEMB      26              0.0000000000
      3138        26  PMPE      H4Y             3.6728448800      -25.0815694739        8.7299274292  MEMB      26              0.0000000000
      3139        26  PMPE      C35             3.3897525468      -23.1010185464        7.9056690484  MEMB      26              0.0000000000
      3140        26  PMPE      H5X             4.4637985299      -22.8944509319        8.1109967392  MEMB      26              0.0000000000
      3141        26  PMPE      H5Y             2.8461152860      -22.1680436869        8.1655411433  MEMB      26              0.0000000000
      3142        26  PMPE      C36             3.2611989137      -23.4107724385        6.3862865795  MEMB      26              0.0000000000
      3143        26  PMPE      H6X             3.7699293163      -24.3759147168        6.1757630019  MEMB      26              0.0000000000
      3144        26  PMPE      H6Y             3.7567252277      -22.6194544766        5.7738474165  MEMB      26              0.0000000000
      3145        26  PMPE      C37             1.8316174506      -23.4642451170        5.8313656477  MEMB      26              0.0000000000
      3146        26  PMPE      H7X             1.3266263512      -22.5203034894        6.1301623558  MEMB      26              0.0000000000
      3147        26  PMPE      H7Y             1.2797738875      -24.3243804170        6.2648218054  MEMB      26              0.0000000000
      3148        26  PMPE      C38             1.7666965179      -23.5015372339        4.2938225727  MEMB      26              0.0000000000
      3149        26  PMPE      H8X             2.0846102691      -24.5040663216        3.9346206038  MEMB      26              0.0000000000
      3150        26  PMPE      H8Y             2.4884717896      -22.7440951583        3.9072550317  MEMB      26              0.0000000000
      3151        26  PMPE      C39             0.3514621578      -23.1345403438        3.8109141300  MEMB      26              0.0000000000
      3152        26  PMPE      H9X             0.0429904371      -22.2202258440        4.3688842779  MEMB      26              0.0000000000
      3153        26  PMPE      H9Y            -0.3601936543      -23.9496019981        4.0697334917  MEMB      26              0.0000000000
      3154        26  PMPE      C310            0.2323610421      -22.6870494533        2.3505722760  MEMB      26              0.0000000000
      3155        26  PMPE      H10X            0.9701587689      -21.8712667844        2.1958500229  MEMB      26              0.0000000000
      3156        26  PMPE      H10Y           -0.7743011751      -22.2358780256        2.1884536202  MEMB      26              0.0000000000
      3157        26  PMPE      C311            0.5619935373      -23.7425321883        1.3037502959  MEMB      26              0.0000000000
      3158        26  PMPE      H11X            1.6389915976      -24.0004617453        1.3997626943  MEMB      26              0.0000000000
      3159        26  PMPE      H11Y            0.4544714465      -23.3008497448        0.3026193209  MEMB      26              0.0000000000
      3160        26  PMPE      C312           -0.2159334168      -25.0444305942        1.4301653200  MEMB      26              0.0000000000
      3161        26  PMPE      H12X           -0.0306623983      -25.5029281874        2.4234317751  MEMB      26              0.0000000000
      3162        26  PMPE      H12Y            0.1990230367      -25.7384918900        0.7353459615  MEMB      26              0.0000000000
      3163        26  PMPE      C313           -1.7138776209      -25.0460341396        1.1563457786  MEMB      26              0.0000000000
      3164        26  PMPE      H13X           -2.1463884198      -24.2645744041        1.8106530903  MEMB      26              0.0000000000
      3165        26  PMPE      H13Y           -2.0303988130      -26.0997359601        1.3213296012  MEMB      26              0.0000000000
      3166        26  PMPE      C314           -2.2826787689      -24.7692519877       -0.2134199428  MEMB      26              0.0000000000
      3167        26  PMPE      H14X           -1.9831922955      -23.7221156731       -0.3361907622  MEMB      26              0.0000000000
      3168        26  PMPE      H14Y           -3.3767635104      -24.7347186847       -0.2893150281  MEMB      26              0.0000000000
      3169        26  PMPE      C315           -1.8602217185      -25.8226011471       -1.2041847280  MEMB      26              0.0000000000
      3170        26  PMPE      H15X           -2.0943487927      -26.8815189303       -1.0191913572  MEMB      26              0.0000000000
      3171        26  PMPE      H15Y           -0.7665916353      -25.6866764671       -1.2353409820  MEMB      26              0.0000000000
      3172        26  PMPE      C316           -2.2371822369      -25.6110226720       -2.5929461850  MEMB      26              0.0000000000
      3173        26  PMPE      H16X           -1.6692121795      -26.1141687793       -3.3547970609  MEMB      26              0.0000000000
      3174        26  PMPE      H16Y           -1.4357021666      -24.9367986310       -2.7734666737  MEMB      26              0.0000000000
      3175        26  PMPE      H16Z           -3.1620926891      -25.0922394317       -2.8894992051  MEMB      26              0.0000000000
      3176        27  PMPE      N             -24.5171044538       -2.6138352308       21.9650107062  MEMB      27              0.0000000000
      3177        27  PMPE      HN1           -24.0816105726       -2.6589130232       22.9053161218  MEMB      27              0.0000000000
      3178        27  PMPE      HN2           -24.3912386669       -1.6678919757       21.5418339678  MEMB      27              0.0000000000
      3179        27  PMPE      HN3           -25.5225564045       -2.8714649540       22.0214088994  MEMB      27              0.0000000000
      3180        27  PMPE      C12           -23.8711423682       -3.6449695204       21.0687107210  MEMB      27              0.0000000000
      3181        27  PMPE      H12A          -23.9296413830       -4.6026314004       21.6174940684  MEMB      27              0.0000000000
      3182        27  PMPE      H12B          -22.8136939550       -3.3521583996       20.8962336549  MEMB      27              0.0000000000
      3183        27  PMPE      C11           -24.5461952810       -3.8701333950       19.7043462612  MEMB      27              0.0000000000
      3184        27  PMPE      H11A          -25.6161101036       -4.1622925839       19.8022224595  MEMB      27              0.0000000000
      3185        27  PMPE      H11B          -24.0241894303       -4.7463644537       19.2408350205  MEMB      27              0.0000000000
      3186        27  PMPE      P             -23.2818566054       -2.5099501416       17.8145822919  MEMB      27              0.0000000000
      3187        27  PMPE      O13           -22.0609753134       -2.2680645352       18.6352160884  MEMB      27              0.0000000000
      3188        27  PMPE      O14           -23.6827631507       -1.4788591891       16.8412417877  MEMB      27              0.0000000000
      3189        27  PMPE      O11           -23.1513040030       -3.9139177095       17.0685808952  MEMB      27              0.0000000000
      3190        27  PMPE      O12           -24.4504344168       -2.7099220268       18.8965504510  MEMB      27              0.0000000000
      3191        27  PMPE      C1            -23.9853295833       -4.2516655409       15.9503315541  MEMB      27              0.0000000000
      3192        27  PMPE      HA            -24.3132849685       -3.3628585081       15.3564558668  MEMB      27              0.0000000000
      3193        27  PMPE      HB            -24.8758276978       -4.7992512345       16.3242089139  MEMB      27              0.0000000000
      3194        27  PMPE      C2            -23.3294867318       -5.2529570590       14.9569596695  MEMB      27              0.0000000000
      3195        27  PMPE      HS            -22.9227220324       -6.0845741986       15.5790209012  MEMB      27              0.0000000000
      3196        27  PMPE      O21           -22.3408730082       -4.5749784096       14.1672101020  MEMB      27              0.0000000000
      3197        27  PMPE      C21           -21.3783132848       -5.3731886905       13.7837766813  MEMB      27              0.0000000000
      3198        27  PMPE      O22           -21.2183366085       -6.5259446957       14.1341349481  MEMB      27              0.0000000000
      3199        27  PMPE      C22           -20.4204768344       -4.6730625158       12.8593002997  MEMB      27              0.0000000000
      3200        27  PMPE      H2R           -20.8451850049       -4.6426103409       11.8408984329  MEMB      27              0.0000000000
      3201        27  PMPE      H2S           -19.5277740016       -5.3060038687       12.8573818434  MEMB      27              0.0000000000
      3202        27  PMPE      C3            -24.3953874146       -5.8011231215       13.9815443613  MEMB      27              0.0000000000
      3203        27  PMPE      HX            -25.0990675851       -6.4377076167       14.5587728882  MEMB      27              0.0000000000
      3204        27  PMPE      HY            -23.9110938021       -6.4263968769       13.1926577392  MEMB      27              0.0000000000
      3205        27  PMPE      O31           -25.1245537801       -4.6768052921       13.4727897735  MEMB      27              0.0000000000
      3206        27  PMPE      C31           -25.0469371583       -4.3993916107       12.2067712133  MEMB      27              0.0000000000
      3207        27  PMPE      O32           -24.5404923824       -5.0844717684       11.3344648982  MEMB      27              0.0000000000
      3208        27  PMPE      C32           -25.7877523941       -3.0936014591       12.0077091625  MEMB      27              0.0000000000
      3209        27  PMPE      H2X           -25.2979484629       -2.2914783779       12.6021231680  MEMB      27              0.0000000000
      3210        27  PMPE      H2Y           -26.8169766524       -3.2161991970       12.4059208288  MEMB      27              0.0000000000
      3211        27  PMPE      C23           -20.1375681113       -3.2518256365       13.2652458566  MEMB      27              0.0000000000
      3212        27  PMPE      H3R           -19.1224242208       -2.8080442945       13.1372013466  MEMB      27              0.0000000000
      3213        27  PMPE      H3S           -20.3452443073       -3.1294289886       14.3537660099  MEMB      27              0.0000000000
      3214        27  PMPE      C24           -20.9136807676       -2.4179403964       12.2861722696  MEMB      27              0.0000000000
      3215        27  PMPE      H4R           -20.4164669418       -1.5567748626       12.5868878846  MEMB      27              0.0000000000
      3216        27  PMPE      H4S           -22.0004815453       -2.3647145157       12.4126287470  MEMB      27              0.0000000000
      3217        27  PMPE      C25           -20.4138238410       -2.0272543106       10.9179922794  MEMB      27              0.0000000000
      3218        27  PMPE      H5R           -20.6293443778       -3.0153806158       10.5479526707  MEMB      27              0.0000000000
      3219        27  PMPE      H5S           -19.3214315545       -1.7165026830       10.9514475877  MEMB      27              0.0000000000
      3220        27  PMPE      C26           -21.4438684510       -1.2391177406       10.0840353906  MEMB      27              0.0000000000
      3221        27  PMPE      H6R           -21.5897703470       -0.1713086538       10.0339225648  MEMB      27              0.0000000000
      3222        27  PMPE      H6S           -22.4202215292       -1.2769308765       10.5531336284  MEMB      27              0.0000000000
      3223        27  PMPE      C27           -21.2120797413       -1.1586799202        8.6460548264  MEMB      27              0.0000000000
      3224        27  PMPE      H7R           -21.1251606110       -2.2230022737        8.5319504526  MEMB      27              0.0000000000
      3225        27  PMPE      H7S           -20.1677167093       -0.7832511696        8.4448658023  MEMB      27              0.0000000000
      3226        27  PMPE      C28           -22.4842081100       -0.4932432325        7.9701916656  MEMB      27              0.0000000000
      3227        27  PMPE      H8R           -23.2813690513       -0.8627965227        8.6470967961  MEMB      27              0.0000000000
      3228        27  PMPE      H8S           -22.4740978171       -1.0241621513        7.0083237798  MEMB      27              0.0000000000
      3229        27  PMPE      C29           -22.7680257650        1.0737414085        7.7431116538  MEMB      27              0.0000000000
      3230        27  PMPE      H9R           -22.0793672171        1.7381775028        7.2440867970  MEMB      27              0.0000000000
      3231        27  PMPE      C217          -23.6168842969        1.8312397361        8.7832204122  MEMB      27              0.0000000000
      3232        27  PMPE      H17R          -23.1881903132        2.8017241758        9.0144450084  MEMB      27              0.0000000000
      3233        27  PMPE      H17S          -24.0511612007        1.1462354013        9.4871096570  MEMB      27              0.0000000000
      3234        27  PMPE      C210          -24.0230013244        1.7344133162        7.3459946195  MEMB      27              0.0000000000
      3235        27  PMPE      H10R          -23.8642365367        2.6342436390        6.7037080924  MEMB      27              0.0000000000
      3236        27  PMPE      C211          -25.0069823554        0.7499758906        6.9665645497  MEMB      27              0.0000000000
      3237        27  PMPE      H11R          -25.8957952710        1.3752847439        6.9308968707  MEMB      27              0.0000000000
      3238        27  PMPE      H11S          -25.0465460010       -0.0831213214        7.7042805567  MEMB      27              0.0000000000
      3239        27  PMPE      C212          -24.7604020989        0.3272896709        5.5443714145  MEMB      27              0.0000000000
      3240        27  PMPE      H12R          -23.7756156615       -0.1618023494        5.4539894998  MEMB      27              0.0000000000
      3241        27  PMPE      H12S          -24.7172108322        1.2946192139        4.9905093729  MEMB      27              0.0000000000
      3242        27  PMPE      C213          -25.9147099003       -0.5990840791        5.1541562179  MEMB      27              0.0000000000
      3243        27  PMPE      H13R          -26.8764837912       -0.0984761632        5.3927443007  MEMB      27              0.0000000000
      3244        27  PMPE      H13S          -25.7851498702       -1.5358451627        5.7180298674  MEMB      27              0.0000000000
      3245        27  PMPE      C214          -26.0388382017       -1.0702787792        3.7444332620  MEMB      27              0.0000000000
      3246        27  PMPE      H14R          -27.0399656836       -1.4746999393        3.4938838151  MEMB      27              0.0000000000
      3247        27  PMPE      H14S          -25.2924698800       -1.8674580201        3.5441057914  MEMB      27              0.0000000000
      3248        27  PMPE      C215          -25.9209049186        0.0926990953        2.8852211909  MEMB      27              0.0000000000
      3249        27  PMPE      H15R          -26.2672423242       -0.3017897664        1.8710736675  MEMB      27              0.0000000000
      3250        27  PMPE      H15S          -24.8667782558        0.4817667265        2.9726242181  MEMB      27              0.0000000000
      3251        27  PMPE      C216          -26.6152553906        1.3333207804        3.2122418787  MEMB      27              0.0000000000
      3252        27  PMPE      H16R          -26.1857341309        2.1559202892        2.6572587446  MEMB      27              0.0000000000
      3253        27  PMPE      H16S          -27.6625231024        1.1933693072        2.9294855994  MEMB      27              0.0000000000
      3254        27  PMPE      H16T          -26.2975844236        1.8941053564        4.0840625238  MEMB      27              0.0000000000
      3255        27  PMPE      C33           -25.7420063775       -2.6907421201       10.5319766172  MEMB      27              0.0000000000
      3256        27  PMPE      H3X           -24.6898787231       -2.5627212530       10.2021013056  MEMB      27              0.0000000000
      3257        27  PMPE      H3Y           -26.1874712983       -1.6957501720       10.5219722096  MEMB      27              0.0000000000
      3258        27  PMPE      C34           -26.5173449572       -3.6381997507        9.5996111804  MEMB      27              0.0000000000
      3259        27  PMPE      H4X           -27.4664542422       -3.9067865038       10.1137225394  MEMB      27              0.0000000000
      3260        27  PMPE      H4Y           -25.9325293916       -4.5700405694        9.4550596627  MEMB      27              0.0000000000
      3261        27  PMPE      C35           -26.7838110221       -3.0870877662        8.1899167244  MEMB      27              0.0000000000
      3262        27  PMPE      H5X           -25.9140978374       -2.4769428729        7.8574399877  MEMB      27              0.0000000000
      3263        27  PMPE      H5Y           -27.6729591819       -2.4267244900        8.2491025998  MEMB      27              0.0000000000
      3264        27  PMPE      C36           -27.1407452009       -4.1372945979        7.1303665517  MEMB      27              0.0000000000
      3265        27  PMPE      H6X           -27.4942174026       -3.6156315279        6.2100937794  MEMB      27              0.0000000000
      3266        27  PMPE      H6Y           -27.9885550554       -4.7440330267        7.5142832541  MEMB      27              0.0000000000
      3267        27  PMPE      C37           -26.0315256588       -5.1097192717        6.7323194716  MEMB      27              0.0000000000
      3268        27  PMPE      H7X           -26.4659759688       -5.7926052707        5.9662898957  MEMB      27              0.0000000000
      3269        27  PMPE      H7Y           -25.7122285628       -5.7485626563        7.5852366689  MEMB      27              0.0000000000
      3270        27  PMPE      C38           -24.8036420615       -4.4805521473        6.0794639068  MEMB      27              0.0000000000
      3271        27  PMPE      H8X           -24.2648589606       -3.8484980215        6.8170581614  MEMB      27              0.0000000000
      3272        27  PMPE      H8Y           -25.1350845987       -3.8139858959        5.2499571532  MEMB      27              0.0000000000
      3273        27  PMPE      C39           -23.9883199135       -5.6556416275        5.5285142194  MEMB      27              0.0000000000
      3274        27  PMPE      H9X           -24.6537221782       -6.1796776157        4.8027010984  MEMB      27              0.0000000000
      3275        27  PMPE      H9Y           -23.6415543583       -6.3595899856        6.3061072749  MEMB      27              0.0000000000
      3276        27  PMPE      C310          -22.7779203525       -5.3439893192        4.7386699587  MEMB      27              0.0000000000
      3277        27  PMPE      H10X          -22.0598569061       -6.1875795163        4.6719292957  MEMB      27              0.0000000000
      3278        27  PMPE      H10Y          -22.2192638602       -4.5036734716        5.2303897673  MEMB      27              0.0000000000
      3279        27  PMPE      C311          -23.2509711023       -5.0869978045        3.3214642169  MEMB      27              0.0000000000
      3280        27  PMPE      H11X          -22.2163745769       -5.0652469660        2.9425121628  MEMB      27              0.0000000000
      3281        27  PMPE      H11Y          -23.8248131684       -4.1252712343        3.2543452697  MEMB      27              0.0000000000
      3282        27  PMPE      C312          -23.6705625163       -6.0920586451        2.2516203932  MEMB      27              0.0000000000
      3283        27  PMPE      H12X          -24.6476664713       -6.3734401073        2.6740185782  MEMB      27              0.0000000000
      3284        27  PMPE      H12Y          -22.8871895007       -6.8798559230        2.2304402292  MEMB      27              0.0000000000
      3285        27  PMPE      C313          -23.9268562645       -5.6186993041        0.7795806975  MEMB      27              0.0000000000
      3286        27  PMPE      H13X          -24.5039228995       -4.6676700714        0.8170605989  MEMB      27              0.0000000000
      3287        27  PMPE      H13Y          -24.6789020437       -6.3179772323        0.3680267597  MEMB      27              0.0000000000
      3288        27  PMPE      C314          -22.7170216854       -5.6543221035       -0.2163462094  MEMB      27              0.0000000000
      3289        27  PMPE      H14X          -22.1723178130       -6.6042741486       -0.1020968915  MEMB      27              0.0000000000
      3290        27  PMPE      H14Y          -21.8322128780       -5.0394101839       -0.1494219504  MEMB      27              0.0000000000
      3291        27  PMPE      C315          -22.9989885169       -5.1112676918       -1.6143020489  MEMB      27              0.0000000000
      3292        27  PMPE      H15X          -23.2990799131       -4.0738064028       -1.6108817719  MEMB      27              0.0000000000
      3293        27  PMPE      H15Y          -23.8761236476       -5.6496977849       -1.9630624272  MEMB      27              0.0000000000
      3294        27  PMPE      C316          -21.7794511661       -5.0599158884       -2.5377873306  MEMB      27              0.0000000000
      3295        27  PMPE      H16X          -21.2042820841       -4.1141445515       -2.3826295253  MEMB      27              0.0000000000
      3296        27  PMPE      H16Y          -22.0786170390       -5.1038411649       -3.6025313481  MEMB      27              0.0000000000
      3297        27  PMPE      H16Z          -21.0832991105       -5.8856281681       -2.2980246652  MEMB      27              0.0000000000
      3298        28  PMPE      N              20.8495253319      -10.6147610204       21.5464415046  MEMB      28              0.0000000000
      3299        28  PMPE      HN1            20.6274902894      -10.9780590207       22.4836775918  MEMB      28              0.0000000000
      3300        28  PMPE      HN2            21.6762845395       -9.9767451704       21.6186656475  MEMB      28              0.0000000000
      3301        28  PMPE      HN3            20.0554913769      -10.0456331811       21.1823824869  MEMB      28              0.0000000000
      3302        28  PMPE      C12            21.2116358038      -11.6748116836       20.5476224131  MEMB      28              0.0000000000
      3303        28  PMPE      H12A           20.6291551100      -12.5913214002       20.7550637882  MEMB      28              0.0000000000
      3304        28  PMPE      H12B           22.2906787135      -11.9048010539       20.6429524286  MEMB      28              0.0000000000
      3305        28  PMPE      C11            20.9825157036      -11.1232325582       19.1476881793  MEMB      28              0.0000000000
      3306        28  PMPE      H11A           19.8920791685      -10.9541036370       18.9783115561  MEMB      28              0.0000000000
      3307        28  PMPE      H11B           21.3185246050      -11.8802672255       18.4062027448  MEMB      28              0.0000000000
      3308        28  PMPE      P              21.2749646530       -8.6933344500       18.1550801394  MEMB      28              0.0000000000
      3309        28  PMPE      O13            22.4030221944       -7.7661185410       18.0379447469  MEMB      28              0.0000000000
      3310        28  PMPE      O14            20.0258289776       -8.2420338241       18.7877574523  MEMB      28              0.0000000000
      3311        28  PMPE      O11            20.9432688421       -9.3131952782       16.7569255008  MEMB      28              0.0000000000
      3312        28  PMPE      O12            21.7551280651       -9.9353582081       19.0070005755  MEMB      28              0.0000000000
      3313        28  PMPE      C1             21.8066309234      -10.2508057991       16.1240771535  MEMB      28              0.0000000000
      3314        28  PMPE      HA             21.2309558964      -11.1971146207       16.1174788527  MEMB      28              0.0000000000
      3315        28  PMPE      HB             22.7723590571      -10.4148383658       16.6590731136  MEMB      28              0.0000000000
      3316        28  PMPE      C2             22.1749982053       -9.8758155132       14.6603022483  MEMB      28              0.0000000000
      3317        28  PMPE      HS             23.0260700452       -9.1519621318       14.6613045039  MEMB      28              0.0000000000
      3318        28  PMPE      O21            21.0539405729       -9.3142711268       14.0042524196  MEMB      28              0.0000000000
      3319        28  PMPE      C21            20.8892170702       -8.0442504738       14.1508531483  MEMB      28              0.0000000000
      3320        28  PMPE      O22            21.6288355174       -7.2219260218       14.6502423705  MEMB      28              0.0000000000
      3321        28  PMPE      C22            19.5786063445       -7.7406598111       13.5065916790  MEMB      28              0.0000000000
      3322        28  PMPE      H2R            19.5125575871       -6.6497558629       13.6995645377  MEMB      28              0.0000000000
      3323        28  PMPE      H2S            18.8196472683       -8.3360630113       14.0682940831  MEMB      28              0.0000000000
      3324        28  PMPE      C3             22.5670014446      -11.1212662741       13.8272237614  MEMB      28              0.0000000000
      3325        28  PMPE      HX             21.7892812362      -11.8935254649       14.0372353493  MEMB      28              0.0000000000
      3326        28  PMPE      HY             23.5434002596      -11.5429973042       14.1409042829  MEMB      28              0.0000000000
      3327        28  PMPE      O31            22.4901141392      -10.8581228599       12.4147373232  MEMB      28              0.0000000000
      3328        28  PMPE      C31            23.4343407148      -10.1461382758       11.8441722996  MEMB      28              0.0000000000
      3329        28  PMPE      O32            24.5033393345       -9.8316529018       12.3290579673  MEMB      28              0.0000000000
      3330        28  PMPE      C32            22.9189849440       -9.7184042055       10.4646272945  MEMB      28              0.0000000000
      3331        28  PMPE      H2X            22.5753377242       -8.6635688963       10.5465097791  MEMB      28              0.0000000000
      3332        28  PMPE      H2Y            22.0530424747      -10.3582853456       10.1964604513  MEMB      28              0.0000000000
      3333        28  PMPE      C23            19.4167468531       -8.0986820566       12.0160886857  MEMB      28              0.0000000000
      3334        28  PMPE      H3R            18.3685931412       -8.3500183273       11.7441151308  MEMB      28              0.0000000000
      3335        28  PMPE      H3S            20.0008387071       -9.0202444138       11.8204826987  MEMB      28              0.0000000000
      3336        28  PMPE      C24            19.8828221155       -6.9959648531       11.0787737270  MEMB      28              0.0000000000
      3337        28  PMPE      H4R            20.9060418580       -6.7266991752       11.4235128484  MEMB      28              0.0000000000
      3338        28  PMPE      H4S            19.2424051108       -6.0822002896       11.0976658670  MEMB      28              0.0000000000
      3339        28  PMPE      C25            19.8764507063       -7.5383317338        9.6528120578  MEMB      28              0.0000000000
      3340        28  PMPE      H5R            18.8654067737       -7.9626571220        9.4468017984  MEMB      28              0.0000000000
      3341        28  PMPE      H5S            20.6260574433       -8.3548812008        9.5905695445  MEMB      28              0.0000000000
      3342        28  PMPE      C26            20.1960956090       -6.4739217526        8.6167722788  MEMB      28              0.0000000000
      3343        28  PMPE      H6R            21.0009357372       -5.8088643964        9.0210883818  MEMB      28              0.0000000000
      3344        28  PMPE      H6S            19.3006776448       -5.8291437153        8.4731471247  MEMB      28              0.0000000000
      3345        28  PMPE      C27            20.6977724733       -7.0490634243        7.2775609316  MEMB      28              0.0000000000
      3346        28  PMPE      H7R            21.5607364093       -7.7296711118        7.4290997028  MEMB      28              0.0000000000
      3347        28  PMPE      H7S            21.0465425245       -6.1600751180        6.7099416259  MEMB      28              0.0000000000
      3348        28  PMPE      C28            19.7293914231       -7.8277971805        6.3679163028  MEMB      28              0.0000000000
      3349        28  PMPE      H8R            18.7503783214       -7.3968144139        6.4507034416  MEMB      28              0.0000000000
      3350        28  PMPE      H8S            19.5364110462       -8.8531839349        6.7340906702  MEMB      28              0.0000000000
      3351        28  PMPE      C29            20.3668332654       -7.8552166928        4.9564619398  MEMB      28              0.0000000000
      3352        28  PMPE      H9R            21.3823417719       -8.2577508486        4.9014904463  MEMB      28              0.0000000000
      3353        28  PMPE      C217           20.1892999075       -6.6107725431        4.0857258062  MEMB      28              0.0000000000
      3354        28  PMPE      H17R           21.0479109043       -6.3654505712        3.5040297049  MEMB      28              0.0000000000
      3355        28  PMPE      H17S           19.4431450949       -5.8798116849        4.3370118698  MEMB      28              0.0000000000
      3356        28  PMPE      C210           19.6551386823       -7.9718448288        3.6432651812  MEMB      28              0.0000000000
      3357        28  PMPE      H10R           20.1131765659       -8.2948628612        2.7046316701  MEMB      28              0.0000000000
      3358        28  PMPE      C211           18.2271358498       -7.9869949866        3.6202949458  MEMB      28              0.0000000000
      3359        28  PMPE      H11R           17.9165512558       -7.0448782824        3.9712442721  MEMB      28              0.0000000000
      3360        28  PMPE      H11S           17.8444048999       -8.6957629340        4.3396730632  MEMB      28              0.0000000000
      3361        28  PMPE      C212           17.6236187915       -8.0807651810        2.2379633725  MEMB      28              0.0000000000
      3362        28  PMPE      H12R           16.5418362951       -8.2846980547        2.4345139715  MEMB      28              0.0000000000
      3363        28  PMPE      H12S           18.0889340534       -8.8922383518        1.7022012347  MEMB      28              0.0000000000
      3364        28  PMPE      C213           17.9393499079       -7.0678568638        1.1763507968  MEMB      28              0.0000000000
      3365        28  PMPE      H13R           19.0062751932       -6.9519036276        1.0203469069  MEMB      28              0.0000000000
      3366        28  PMPE      H13S           17.6825289351       -6.2186329982        1.7999656118  MEMB      28              0.0000000000
      3367        28  PMPE      C214           17.1445271277       -7.2133172695       -0.1487082001  MEMB      28              0.0000000000
      3368        28  PMPE      H14R           16.8866593640       -6.2442753000       -0.6373518961  MEMB      28              0.0000000000
      3369        28  PMPE      H14S           16.1412867811       -7.7480927570       -0.0859268876  MEMB      28              0.0000000000
      3370        28  PMPE      C215           17.7485197869       -8.0079919026       -1.1347659285  MEMB      28              0.0000000000
      3371        28  PMPE      H15R           17.8503966773       -9.0316966523       -0.6611420655  MEMB      28              0.0000000000
      3372        28  PMPE      H15S           18.6977993625       -7.5925521609       -1.4789270183  MEMB      28              0.0000000000
      3373        28  PMPE      C216           16.6996530215       -7.8788533762       -2.1916856065  MEMB      28              0.0000000000
      3374        28  PMPE      H16R           16.2195835258       -7.0838842815       -2.7501756329  MEMB      28              0.0000000000
      3375        28  PMPE      H16S           17.2672024887       -8.4151223115       -2.9869941940  MEMB      28              0.0000000000
      3376        28  PMPE      H16T           15.7704208485       -8.3338821334       -1.7486268440  MEMB      28              0.0000000000
      3377        28  PMPE      C33            24.0287070810       -9.7823643387        9.3958623535  MEMB      28              0.0000000000
      3378        28  PMPE      H3X            24.8382444295       -9.0898811970        9.7116099265  MEMB      28              0.0000000000
      3379        28  PMPE      H3Y            23.6477370434       -9.4139886034        8.4136034056  MEMB      28              0.0000000000
      3380        28  PMPE      C34            24.6564983524      -11.1683347873        9.1827750549  MEMB      28              0.0000000000
      3381        28  PMPE      H4X            25.1894028410      -11.5360762663       10.0812925679  MEMB      28              0.0000000000
      3382        28  PMPE      H4Y            25.4065494420      -11.0748280878        8.3681463832  MEMB      28              0.0000000000
      3383        28  PMPE      C35            23.6946738743      -12.2687833604        8.8188787498  MEMB      28              0.0000000000
      3384        28  PMPE      H5X            23.0408939679      -12.5437687573        9.6790945452  MEMB      28              0.0000000000
      3385        28  PMPE      H5Y            24.2528006362      -13.1773447411        8.4783384323  MEMB      28              0.0000000000
      3386        28  PMPE      C36            22.8125398091      -11.8789244540        7.7043880559  MEMB      28              0.0000000000
      3387        28  PMPE      H6X            23.3284893973      -11.4694492563        6.8026848924  MEMB      28              0.0000000000
      3388        28  PMPE      H6Y            22.0649840191      -11.1085035572        8.0171130024  MEMB      28              0.0000000000
      3389        28  PMPE      C37            22.1783836422      -13.1474612729        7.3080680757  MEMB      28              0.0000000000
      3390        28  PMPE      H7X            21.2996846473      -13.3168461914        8.0217237486  MEMB      28              0.0000000000
      3391        28  PMPE      H7Y            22.6725221598      -14.1274470429        7.2392220567  MEMB      28              0.0000000000
      3392        28  PMPE      C38            21.7625495895      -12.8263485460        5.9102193267  MEMB      28              0.0000000000
      3393        28  PMPE      H8X            21.3862076875      -11.7755719318        5.9609914920  MEMB      28              0.0000000000
      3394        28  PMPE      H8Y            21.1867214094      -13.7747508107        6.1036493311  MEMB      28              0.0000000000
      3395        28  PMPE      C39            22.2787082148      -12.7580540747        4.4851018710  MEMB      28              0.0000000000
      3396        28  PMPE      H9X            22.8242467798      -13.7096056839        4.5477276858  MEMB      28              0.0000000000
      3397        28  PMPE      H9Y            22.7680314846      -11.7602908892        4.4952769812  MEMB      28              0.0000000000
      3398        28  PMPE      C310           21.4277015504      -12.7995114805        3.1282777113  MEMB      28              0.0000000000
      3399        28  PMPE      H10X           21.0024688940      -13.7958887063        2.9430319580  MEMB      28              0.0000000000
      3400        28  PMPE      H10Y           22.2237107987      -12.8104988034        2.3783602524  MEMB      28              0.0000000000
      3401        28  PMPE      C311           20.2967996941      -11.7812892608        2.7548298433  MEMB      28              0.0000000000
      3402        28  PMPE      H11X           20.4815810066      -10.7784722289        3.1792326235  MEMB      28              0.0000000000
      3403        28  PMPE      H11Y           19.2622859400      -12.0660435651        3.0319398877  MEMB      28              0.0000000000
      3404        28  PMPE      C312           20.0454777156      -11.5733495155        1.2962884428  MEMB      28              0.0000000000
      3405        28  PMPE      H12X           19.3059647985      -10.7363152367        1.2043566438  MEMB      28              0.0000000000
      3406        28  PMPE      H12Y           19.6021783441      -12.4875474741        0.8490299952  MEMB      28              0.0000000000
      3407        28  PMPE      C313           21.3291910905      -11.1587105601        0.6615332601  MEMB      28              0.0000000000
      3408        28  PMPE      H13X           21.7675941257      -12.0884946533        0.2362214256  MEMB      28              0.0000000000
      3409        28  PMPE      H13Y           22.0566113774      -10.7714794166        1.4182986540  MEMB      28              0.0000000000
      3410        28  PMPE      C314           20.9508209156      -10.0377015785       -0.2803164543  MEMB      28              0.0000000000
      3411        28  PMPE      H14X           21.0276384798       -9.0494314021        0.2347006894  MEMB      28              0.0000000000
      3412        28  PMPE      H14Y           19.9994415426      -10.2227118537       -0.8156487473  MEMB      28              0.0000000000
      3413        28  PMPE      C315           21.8220537786       -9.9068106382       -1.4216407512  MEMB      28              0.0000000000
      3414        28  PMPE      H15X           22.7323071036       -9.6130099088       -0.8978483874  MEMB      28              0.0000000000
      3415        28  PMPE      H15Y           21.4704159956       -9.1887865910       -2.1865037175  MEMB      28              0.0000000000
      3416        28  PMPE      C316           22.2258930590      -11.1446720526       -2.0075198091  MEMB      28              0.0000000000
      3417        28  PMPE      H16X           22.9425563117      -11.5081551932       -1.2207242405  MEMB      28              0.0000000000
      3418        28  PMPE      H16Y           22.8526084993      -11.0051461202       -2.8800650356  MEMB      28              0.0000000000
      3419        28  PMPE      H16Z           21.4616599128      -11.8468686314       -2.3502122505  MEMB      28              0.0000000000
      3420        29  PMPG      C13            10.3904854920       20.2175286550       21.0078087621  MEMB      29              0.0000000000
      3421        29  PMPG      H13A           10.4942078035       19.1774537661       21.3799305781  MEMB      29              0.0000000000
      3422        29  PMPG      H13B            9.7189040204       20.7775472372       21.6903132013  MEMB      29              0.0000000000
      3423        29  PMPG      OC3             9.7060050507       20.1329082641       19.7700412942  MEMB      29              0.0000000000
      3424        29  PMPG      HO3             9.9611570448       19.2904520835       19.3949253036  MEMB      29              0.0000000000
      3425        29  PMPG      C12            11.8117851434       20.8621783366       20.9082244911  MEMB      29              0.0000000000
      3426        29  PMPG      H12A           12.2329887328       20.9095581296       21.9351891584  MEMB      29              0.0000000000
      3427        29  PMPG      OC2            11.7638580120       22.2226822939       20.4790016193  MEMB      29              0.0000000000
      3428        29  PMPG      HO2            12.6268227371       22.4282981738       20.0868835501  MEMB      29              0.0000000000
      3429        29  PMPG      C11            12.8386800508       20.0395231217       20.0822151501  MEMB      29              0.0000000000
      3430        29  PMPG      H11A           12.9160162696       19.0123536190       20.4867224991  MEMB      29              0.0000000000
      3431        29  PMPG      H11B           13.8394179177       20.5113750451       20.2273260516  MEMB      29              0.0000000000
      3432        29  PMPG      P              13.3771434056       20.5756388746       17.6148103835  MEMB      29              0.0000000000
      3433        29  PMPG      O13            14.4804156494       19.6486434182       17.4053347523  MEMB      29              0.0000000000
      3434        29  PMPG      O14            13.7993719752       21.9220139733       18.0362759130  MEMB      29              0.0000000000
      3435        29  PMPG      O11            12.4115284421       20.6415203866       16.4121840126  MEMB      29              0.0000000000
      3436        29  PMPG      O12            12.4652085546       19.9242985913       18.7157110998  MEMB      29              0.0000000000
      3437        29  PMPG      C1             11.5587421168       19.6265173546       15.9428536568  MEMB      29              0.0000000000
      3438        29  PMPG      HA             10.6425364167       20.0306904477       15.4809259603  MEMB      29              0.0000000000
      3439        29  PMPG      HB             11.2896427090       18.8221799504       16.6926545253  MEMB      29              0.0000000000
      3440        29  PMPG      C2             12.2499558584       19.0067310572       14.7696307770  MEMB      29              0.0000000000
      3441        29  PMPG      HS             12.9613079468       18.4710699745       15.3495993231  MEMB      29              0.0000000000
      3442        29  PMPG      O21            12.9781516660       19.8897226880       13.8750345178  MEMB      29              0.0000000000
      3443        29  PMPG      C21            14.1978513734       19.7090994699       13.3826211045  MEMB      29              0.0000000000
      3444        29  PMPG      O22            15.1069780139       18.9937010643       13.6684819001  MEMB      29              0.0000000000
      3445        29  PMPG      C22            14.4496100493       20.4637621633       12.1658329835  MEMB      29              0.0000000000
      3446        29  PMPG      H2R            14.1799273231       21.4525977583       12.5809058746  MEMB      29              0.0000000000
      3447        29  PMPG      H2S            13.8314215512       20.2107655231       11.3123685993  MEMB      29              0.0000000000
      3448        29  PMPG      C3             11.1020298732       18.2125741119       14.0002728572  MEMB      29              0.0000000000
      3449        29  PMPG      HX             10.4788328812       17.5129565510       14.5630826068  MEMB      29              0.0000000000
      3450        29  PMPG      HY             11.4028458237       17.3692697210       13.4296949694  MEMB      29              0.0000000000
      3451        29  PMPG      O31            10.3746560483       19.0122916358       13.1210781209  MEMB      29              0.0000000000
      3452        29  PMPG      C31            10.1838339638       18.5753217403       11.8876305165  MEMB      29              0.0000000000
      3453        29  PMPG      O32            10.4227570071       17.4895908631       11.4032820552  MEMB      29              0.0000000000
      3454        29  PMPG      C32             9.6850010017       19.7544329269       11.2111748861  MEMB      29              0.0000000000
      3455        29  PMPG      H2X             8.7864658373       20.0832056067       11.7854615525  MEMB      29              0.0000000000
      3456        29  PMPG      H2Y             9.4385569902       19.5783231575       10.1493202803  MEMB      29              0.0000000000
      3457        29  PMPG      C23            15.9299851162       20.1489632428       11.7762125009  MEMB      29              0.0000000000
      3458        29  PMPG      H3R            16.1820525604       19.1836863422       11.3390879184  MEMB      29              0.0000000000
      3459        29  PMPG      H3S            16.6710378175       20.0136240035       12.6380024666  MEMB      29              0.0000000000
      3460        29  PMPG      C24            16.5324817635       21.3478414351       11.1366676849  MEMB      29              0.0000000000
      3461        29  PMPG      H4R            17.6185982036       21.0713796841       11.2034295959  MEMB      29              0.0000000000
      3462        29  PMPG      H4S            16.2000885137       22.3584334323       11.4824833786  MEMB      29              0.0000000000
      3463        29  PMPG      C25            16.2816503909       21.8772769855        9.8833678968  MEMB      29              0.0000000000
      3464        29  PMPG      H5R            16.8268806138       22.8264550067        9.6006423733  MEMB      29              0.0000000000
      3465        29  PMPG      H5S            15.1667451674       22.0550487214        9.8605799718  MEMB      29              0.0000000000
      3466        29  PMPG      C26            16.8345774370       20.7991809266        9.1524864940  MEMB      29              0.0000000000
      3467        29  PMPG      H6R            16.7954753560       19.7561894079        9.4976946174  MEMB      29              0.0000000000
      3468        29  PMPG      H6S            17.9398944097       20.9661502173        9.0692504491  MEMB      29              0.0000000000
      3469        29  PMPG      C27            15.8064445271       21.2021757373        8.1704155702  MEMB      29              0.0000000000
      3470        29  PMPG      H7R            16.8135085089       21.3234972169        7.7163793623  MEMB      29              0.0000000000
      3471        29  PMPG      H7S            15.6370644089       22.1641976616        7.6816786139  MEMB      29              0.0000000000
      3472        29  PMPG      C28            14.5023252245       20.2143990726        7.9960446772  MEMB      29              0.0000000000
      3473        29  PMPG      H8R            13.8181138481       20.5041338481        7.1774548098  MEMB      29              0.0000000000
      3474        29  PMPG      H8S            13.9857546801       20.4450369700        8.9144112701  MEMB      29              0.0000000000
      3475        29  PMPG      C29            14.4955772875       18.6086749749        7.7902070096  MEMB      29              0.0000000000
      3476        29  PMPG      H9R            15.0991941193       17.9723083543        7.1085272566  MEMB      29              0.0000000000
      3477        29  PMPG      C217           14.5500984042       18.1834627424        9.1599268446  MEMB      29              0.0000000000
      3478        29  PMPG      H17R           15.1539937999       17.3294877487        9.3652550678  MEMB      29              0.0000000000
      3479        29  PMPG      H17S           14.1316866544       18.7994709270        9.9199471815  MEMB      29              0.0000000000
      3480        29  PMPG      C210           13.4412359654       17.6837878301        8.2495247777  MEMB      29              0.0000000000
      3481        29  PMPG      H10R           13.5143307973       16.6747302442        7.8443549979  MEMB      29              0.0000000000
      3482        29  PMPG      C211           12.1415433743       18.3394251073        8.0666129929  MEMB      29              0.0000000000
      3483        29  PMPG      H11R           11.4256931902       17.8745225978        8.7615362830  MEMB      29              0.0000000000
      3484        29  PMPG      H11S           12.2585810910       19.3904387907        8.3576696875  MEMB      29              0.0000000000
      3485        29  PMPG      C212           11.6603595855       18.2118907868        6.6181170439  MEMB      29              0.0000000000
      3486        29  PMPG      H12R           11.3687744823       17.1605967930        6.3902665449  MEMB      29              0.0000000000
      3487        29  PMPG      H12S           12.4713356382       18.4534063395        5.8873747099  MEMB      29              0.0000000000
      3488        29  PMPG      C213           10.4986529755       19.1963850151        6.4167368663  MEMB      29              0.0000000000
      3489        29  PMPG      H13R           10.8848221247       20.2110581999        6.6347628439  MEMB      29              0.0000000000
      3490        29  PMPG      H13S            9.6156567263       18.9826032452        7.0509379601  MEMB      29              0.0000000000
      3491        29  PMPG      C214           10.0161385387       19.1926328371        4.9949571931  MEMB      29              0.0000000000
      3492        29  PMPG      H14R            9.8524447173       18.1100406571        4.7881584412  MEMB      29              0.0000000000
      3493        29  PMPG      H14S           10.9547164877       19.4383449561        4.4197444268  MEMB      29              0.0000000000
      3494        29  PMPG      C215            8.7816385645       20.1728808592        4.6230277808  MEMB      29              0.0000000000
      3495        29  PMPG      H15R            9.2934763657       21.1417928155        4.4056637499  MEMB      29              0.0000000000
      3496        29  PMPG      H15S            8.0839732409       20.1758895342        5.4631340503  MEMB      29              0.0000000000
      3497        29  PMPG      C216            7.7228196242       20.0360598154        3.4549081218  MEMB      29              0.0000000000
      3498        29  PMPG      H16R            7.1815456908       20.7759065957        2.8500866009  MEMB      29              0.0000000000
      3499        29  PMPG      H16S            7.3931139797       18.9900219601        3.2444733132  MEMB      29              0.0000000000
      3500        29  PMPG      H16T            8.3874654934       20.3952534153        2.6721040739  MEMB      29              0.0000000000
      3501        29  PMPG      C33            10.8196685595       20.7398440602       11.4127377653  MEMB      29              0.0000000000
      3502        29  PMPG      H3X            11.8337826445       20.4121628604       11.0966131748  MEMB      29              0.0000000000
      3503        29  PMPG      H3Y            10.8259374467       21.1529646799       12.4554754722  MEMB      29              0.0000000000
      3504        29  PMPG      C34            10.4905227556       21.8423853400       10.5674626007  MEMB      29              0.0000000000
      3505        29  PMPG      H4X            11.1349155423       22.6916359792       10.8363158701  MEMB      29              0.0000000000
      3506        29  PMPG      H4Y             9.3859979535       22.0366891127       10.6445136323  MEMB      29              0.0000000000
      3507        29  PMPG      C35            10.9612183015       21.7466986761        9.1980205335  MEMB      29              0.0000000000
      3508        29  PMPG      H5X            10.1280023313       21.2328872189        8.6389402787  MEMB      29              0.0000000000
      3509        29  PMPG      H5Y            11.9511136672       21.3155954266        9.0108323073  MEMB      29              0.0000000000
      3510        29  PMPG      C36            11.3071527286       23.1450092496        8.7806631883  MEMB      29              0.0000000000
      3511        29  PMPG      H6X            11.3614632398       24.1333874904        9.2958203595  MEMB      29              0.0000000000
      3512        29  PMPG      H6Y            10.2233145876       23.1022301144        8.4713758966  MEMB      29              0.0000000000
      3513        29  PMPG      C37            12.0207478712       23.1611255378        7.5559559572  MEMB      29              0.0000000000
      3514        29  PMPG      H7X            11.5027442870       24.1775646689        7.4030890396  MEMB      29              0.0000000000
      3515        29  PMPG      H7Y            11.6740577648       22.1784732008        7.1384501530  MEMB      29              0.0000000000
      3516        29  PMPG      C38            13.3532601097       23.4761480814        6.9261491962  MEMB      29              0.0000000000
      3517        29  PMPG      H8X            13.7284102127       22.6716314332        7.5518042638  MEMB      29              0.0000000000
      3518        29  PMPG      H8Y            13.4114348368       24.5522204162        7.2668597788  MEMB      29              0.0000000000
      3519        29  PMPG      C39            13.7190281846       23.1320461620        5.3651700109  MEMB      29              0.0000000000
      3520        29  PMPG      H9X            14.6508927093       23.6804959657        5.1123230472  MEMB      29              0.0000000000
      3521        29  PMPG      H9Y            13.2811743978       23.7233493964        4.6064054261  MEMB      29              0.0000000000
      3522        29  PMPG      C310           13.0137970238       22.0383554037        4.4098492910  MEMB      29              0.0000000000
      3523        29  PMPG      H10X           11.9684376990       21.7108539571        4.4316778965  MEMB      29              0.0000000000
      3524        29  PMPG      H10Y           13.2150739147       21.0596714285        4.7890686432  MEMB      29              0.0000000000
      3525        29  PMPG      C311           12.9266420656       22.2945173396        2.8730131905  MEMB      29              0.0000000000
      3526        29  PMPG      H11X           13.8694697945       22.6586374200        2.4879401713  MEMB      29              0.0000000000
      3527        29  PMPG      H11Y           12.6109443775       23.1741273047        2.3462753599  MEMB      29              0.0000000000
      3528        29  PMPG      C312           12.1756854631       21.2014082764        2.1729057624  MEMB      29              0.0000000000
      3529        29  PMPG      H12X           11.1068665081       21.1910528980        2.4749843811  MEMB      29              0.0000000000
      3530        29  PMPG      H12Y           12.5541072525       20.1892923194        2.3811403119  MEMB      29              0.0000000000
      3531        29  PMPG      C313           12.3660338589       21.5109781731        0.7409018572  MEMB      29              0.0000000000
      3532        29  PMPG      H13X           13.4150553503       21.4993597114        0.4292702122  MEMB      29              0.0000000000
      3533        29  PMPG      H13Y           11.9410986050       22.5044526762        0.4871107326  MEMB      29              0.0000000000
      3534        29  PMPG      C314           11.6232118488       20.5952024219       -0.0744304095  MEMB      29              0.0000000000
      3535        29  PMPG      H14X           10.5753178881       20.8057229125        0.0656564969  MEMB      29              0.0000000000
      3536        29  PMPG      H14Y           11.8865233230       19.5193492533        0.1054977133  MEMB      29              0.0000000000
      3537        29  PMPG      C315           11.7094559630       21.0987778072       -1.4614319479  MEMB      29              0.0000000000
      3538        29  PMPG      H15X           11.2907708300       20.3075994008       -2.1034793023  MEMB      29              0.0000000000
      3539        29  PMPG      H15Y           12.7717121442       21.3748891053       -1.5282289310  MEMB      29              0.0000000000
      3540        29  PMPG      C316           10.9203319576       22.1737566384       -2.0407279803  MEMB      29              0.0000000000
      3541        29  PMPG      H16X            9.8932529248       21.9154092173       -1.7743914432  MEMB      29              0.0000000000
      3542        29  PMPG      H16Y           11.0983521439       22.1733497281       -3.1587049106  MEMB      29              0.0000000000
      3543        29  PMPG      H16Z           11.1753022636       23.0904457551       -1.5226871181  MEMB      29              0.0000000000
      3544        30  PMPE      N             -24.7457053218        7.8915673867       20.8201370631  MEMB      30              0.0000000000
      3545        30  PMPE      HN1           -23.8386876294        7.6324495520       21.2491522521  MEMB      30              0.0000000000
      3546        30  PMPE      HN2           -24.5751356313        8.3165626214       19.8815901343  MEMB      30              0.0000000000
      3547        30  PMPE      HN3           -25.2318960257        8.5978913705       21.4247555193  MEMB      30              0.0000000000
      3548        30  PMPE      C12           -25.5473038554        6.6270689314       20.6447467730  MEMB      30              0.0000000000
      3549        30  PMPE      H12A          -26.6086153654        6.9076241248       20.6339958712  MEMB      30              0.0000000000
      3550        30  PMPE      H12B          -25.3969917654        6.0063290922       21.5469161329  MEMB      30              0.0000000000
      3551        30  PMPE      C11           -25.1737812591        5.8610113877       19.3556010941  MEMB      30              0.0000000000
      3552        30  PMPE      H11A          -25.4050679928        6.4594812773       18.4409024463  MEMB      30              0.0000000000
      3553        30  PMPE      H11B          -25.8401383887        4.9635322955       19.3096277789  MEMB      30              0.0000000000
      3554        30  PMPE      P             -22.8745534105        5.0603997948       18.1888900390  MEMB      30              0.0000000000
      3555        30  PMPE      O13           -21.7133736169        4.3679658915       18.8111936549  MEMB      30              0.0000000000
      3556        30  PMPE      O14           -22.6679696471        6.2865963307       17.3954703758  MEMB      30              0.0000000000
      3557        30  PMPE      O11           -23.8245712422        4.0578415032       17.4220974030  MEMB      30              0.0000000000
      3558        30  PMPE      O12           -23.7999609438        5.4893997547       19.4157471805  MEMB      30              0.0000000000
      3559        30  PMPE      C1            -23.4655161720        3.3857644395       16.2035657031  MEMB      30              0.0000000000
      3560        30  PMPE      HA            -24.2291630878        2.5892741426       16.0314609809  MEMB      30              0.0000000000
      3561        30  PMPE      HB            -22.5093975292        2.8250084644       16.3054415725  MEMB      30              0.0000000000
      3562        30  PMPE      C2            -23.4642362571        4.3476673148       14.9636384218  MEMB      30              0.0000000000
      3563        30  PMPE      HS            -22.5055167038        4.9204751756       14.9522385119  MEMB      30              0.0000000000
      3564        30  PMPE      O21           -24.6195745144        5.2007248403       15.0680578975  MEMB      30              0.0000000000
      3565        30  PMPE      C21           -24.5195691139        6.4802080362       14.7647300626  MEMB      30              0.0000000000
      3566        30  PMPE      O22           -23.5164415349        7.1037927449       14.4725553276  MEMB      30              0.0000000000
      3567        30  PMPE      C22           -25.9425778455        7.0335227002       14.6394877675  MEMB      30              0.0000000000
      3568        30  PMPE      H2R           -26.1181410781        7.7538772844       15.4624197233  MEMB      30              0.0000000000
      3569        30  PMPE      H2S           -26.6611487013        6.1942446298       14.7574875429  MEMB      30              0.0000000000
      3570        30  PMPE      C3            -23.5249438298        3.5891600674       13.6010494049  MEMB      30              0.0000000000
      3571        30  PMPE      HX            -24.4037028517        2.9092240545       13.6041734074  MEMB      30              0.0000000000
      3572        30  PMPE      HY            -22.6236427240        2.9478744793       13.4929060428  MEMB      30              0.0000000000
      3573        30  PMPE      O31           -23.6670477191        4.5011380083       12.4960695084  MEMB      30              0.0000000000
      3574        30  PMPE      C31           -22.5160861543        4.9826278640       12.0358736826  MEMB      30              0.0000000000
      3575        30  PMPE      O32           -21.4022261216        4.6128698503       12.3570608103  MEMB      30              0.0000000000
      3576        30  PMPE      C32           -22.8615884906        6.0620251318       11.0052275233  MEMB      30              0.0000000000
      3577        30  PMPE      H2X           -23.5372922432        6.7646992878       11.5317855969  MEMB      30              0.0000000000
      3578        30  PMPE      H2Y           -23.4352472531        5.6453078343       10.1534750014  MEMB      30              0.0000000000
      3579        30  PMPE      C23           -26.1856873247        7.7062597324       13.2645506369  MEMB      30              0.0000000000
      3580        30  PMPE      H3R           -25.3793303585        8.4260100809       13.0051777696  MEMB      30              0.0000000000
      3581        30  PMPE      H3S           -27.1327734304        8.2925469164       13.3544825526  MEMB      30              0.0000000000
      3582        30  PMPE      C24           -26.2817655619        6.6601487536       12.1350670329  MEMB      30              0.0000000000
      3583        30  PMPE      H4R           -27.0599178962        5.9233450771       12.4140998869  MEMB      30              0.0000000000
      3584        30  PMPE      H4S           -25.3691866245        6.0645890989       12.0578629889  MEMB      30              0.0000000000
      3585        30  PMPE      C25           -26.5341657257        7.2637378063       10.7506753757  MEMB      30              0.0000000000
      3586        30  PMPE      H5R           -25.6773936233        7.8314896756       10.3405130830  MEMB      30              0.0000000000
      3587        30  PMPE      H5S           -27.2685452723        8.0396344006       10.9518458824  MEMB      30              0.0000000000
      3588        30  PMPE      C26           -27.0361790469        6.2973000842        9.6675676688  MEMB      30              0.0000000000
      3589        30  PMPE      H6R           -27.9770017925        5.7905980065        9.9775970809  MEMB      30              0.0000000000
      3590        30  PMPE      H6S           -26.2943817837        5.5143654698        9.4356455416  MEMB      30              0.0000000000
      3591        30  PMPE      C27           -27.2281484062        7.0807772246        8.3824078480  MEMB      30              0.0000000000
      3592        30  PMPE      H7R           -26.4618331876        7.8811033840        8.2834525490  MEMB      30              0.0000000000
      3593        30  PMPE      H7S           -28.1780243095        7.5862404109        8.4848882826  MEMB      30              0.0000000000
      3594        30  PMPE      C28           -27.2662324357        6.3032119261        7.0861972699  MEMB      30              0.0000000000
      3595        30  PMPE      H8R           -27.9066769495        6.9531760390        6.4351989041  MEMB      30              0.0000000000
      3596        30  PMPE      H8S           -27.7847604649        5.3296075591        7.1807686098  MEMB      30              0.0000000000
      3597        30  PMPE      C29           -25.8111991126        6.1688884134        6.5975694553  MEMB      30              0.0000000000
      3598        30  PMPE      H9R           -25.0941315543        5.5754424098        7.1596558087  MEMB      30              0.0000000000
      3599        30  PMPE      C217          -25.3373699147        7.2931458534        5.6722617571  MEMB      30              0.0000000000
      3600        30  PMPE      H17R          -24.2901268992        7.5276334511        5.7219667849  MEMB      30              0.0000000000
      3601        30  PMPE      H17S          -26.1237878852        8.0103595623        5.4438795283  MEMB      30              0.0000000000
      3602        30  PMPE      C210          -25.5413552209        5.8548165907        5.1993131385  MEMB      30              0.0000000000
      3603        30  PMPE      H10R          -24.6370184201        5.3925546459        4.7716748904  MEMB      30              0.0000000000
      3604        30  PMPE      C211          -26.6885127335        5.7699151620        4.4056124674  MEMB      30              0.0000000000
      3605        30  PMPE      H11R          -26.1655715123        6.3383445931        3.5909773330  MEMB      30              0.0000000000
      3606        30  PMPE      H11S          -27.5039220521        6.3703149032        4.7675335230  MEMB      30              0.0000000000
      3607        30  PMPE      C212          -27.3516598222        4.4060899514        4.1908599847  MEMB      30              0.0000000000
      3608        30  PMPE      H12R          -27.4862456954        3.9702643404        5.2053826544  MEMB      30              0.0000000000
      3609        30  PMPE      H12S          -26.7589312238        3.8336046757        3.4789670812  MEMB      30              0.0000000000
      3610        30  PMPE      C213          -28.7444194389        4.3001540062        3.5524918585  MEMB      30              0.0000000000
      3611        30  PMPE      H13R          -29.4041166487        5.0338442414        4.0630413292  MEMB      30              0.0000000000
      3612        30  PMPE      H13S          -28.9753983517        3.2630507464        3.6858637879  MEMB      30              0.0000000000
      3613        30  PMPE      C214          -28.9844728690        4.1479617522        2.0221190237  MEMB      30              0.0000000000
      3614        30  PMPE      H14R          -29.0832625273        4.9577169265        1.3128243326  MEMB      30              0.0000000000
      3615        30  PMPE      H14S          -29.8880207860        3.7881710355        1.8204096547  MEMB      30              0.0000000000
      3616        30  PMPE      C215          -28.7251320567        2.9357484491        1.3602122322  MEMB      30              0.0000000000
      3617        30  PMPE      H15R          -28.9918600798        2.0013155004        1.8382368466  MEMB      30              0.0000000000
      3618        30  PMPE      H15S          -27.7335698477        3.1839496596        1.7341471260  MEMB      30              0.0000000000
      3619        30  PMPE      C216          -29.1682439308        2.9546790256       -0.0951871573  MEMB      30              0.0000000000
      3620        30  PMPE      H16R          -30.2394337833        2.9645905622       -0.3074638079  MEMB      30              0.0000000000
      3621        30  PMPE      H16S          -28.8113448782        3.8590330160       -0.6395911213  MEMB      30              0.0000000000
      3622        30  PMPE      H16T          -28.6648215250        2.1212946752       -0.6348025375  MEMB      30              0.0000000000
      3623        30  PMPE      C33           -21.6641435443        6.9016500136       10.5321941846  MEMB      30              0.0000000000
      3624        30  PMPE      H3X           -20.8608605503        6.2831849057       10.0861849133  MEMB      30              0.0000000000
      3625        30  PMPE      H3Y           -21.2255760765        7.3814123149       11.4328324993  MEMB      30              0.0000000000
      3626        30  PMPE      C34           -22.1454522771        8.0588511388        9.6517237842  MEMB      30              0.0000000000
      3627        30  PMPE      H4X           -21.4366860654        8.9150032107        9.7063987574  MEMB      30              0.0000000000
      3628        30  PMPE      H4Y           -23.1363089577        8.4010321246       10.0278089638  MEMB      30              0.0000000000
      3629        30  PMPE      C35           -22.3323167437        7.7162063861        8.1839424996  MEMB      30              0.0000000000
      3630        30  PMPE      H5X           -22.9289458347        8.5579764770        7.7495273420  MEMB      30              0.0000000000
      3631        30  PMPE      H5Y           -22.9398850759        6.7969133766        8.0672618651  MEMB      30              0.0000000000
      3632        30  PMPE      C36           -21.0000517944        7.7306427260        7.4360029227  MEMB      30              0.0000000000
      3633        30  PMPE      H6X           -20.4708479721        8.6885354583        7.6494001745  MEMB      30              0.0000000000
      3634        30  PMPE      H6Y           -21.2289318261        7.6450628230        6.3651192076  MEMB      30              0.0000000000
      3635        30  PMPE      C37           -20.0180927395        6.5871416679        7.5267539702  MEMB      30              0.0000000000
      3636        30  PMPE      H7X           -19.6227001117        6.5375459952        8.5525666669  MEMB      30              0.0000000000
      3637        30  PMPE      H7Y           -19.1745302815        6.8386346387        6.8350141076  MEMB      30              0.0000000000
      3638        30  PMPE      C38           -20.6448989167        5.2596281863        7.1242579486  MEMB      30              0.0000000000
      3639        30  PMPE      H8X           -21.3995114499        4.9762586304        7.8788878499  MEMB      30              0.0000000000
      3640        30  PMPE      H8Y           -19.8172146002        4.5217463507        7.0877888080  MEMB      30              0.0000000000
      3641        30  PMPE      C39           -21.2830171652        5.2194185273        5.7527605719  MEMB      30              0.0000000000
      3642        30  PMPE      H9X           -21.9244645676        6.1004496365        5.5290746658  MEMB      30              0.0000000000
      3643        30  PMPE      H9Y           -21.9330123748        4.3324499872        5.6222190507  MEMB      30              0.0000000000
      3644        30  PMPE      C310          -20.1607819769        5.1697272180        4.7701822937  MEMB      30              0.0000000000
      3645        30  PMPE      H10X          -19.4972910688        4.2800565482        4.8070673167  MEMB      30              0.0000000000
      3646        30  PMPE      H10Y          -19.5273670312        6.0888209678        4.8951673402  MEMB      30              0.0000000000
      3647        30  PMPE      C311          -20.7330262565        5.2191940424        3.4097189818  MEMB      30              0.0000000000
      3648        30  PMPE      H11X          -19.7586427079        5.3579671148        2.9390649733  MEMB      30              0.0000000000
      3649        30  PMPE      H11Y          -21.4074327402        6.0881993633        3.3815283769  MEMB      30              0.0000000000
      3650        30  PMPE      C312          -21.5914218846        4.1007551402        2.8931717500  MEMB      30              0.0000000000
      3651        30  PMPE      H12X          -22.6273317634        4.3125739532        3.2454360951  MEMB      30              0.0000000000
      3652        30  PMPE      H12Y          -21.2307434502        3.1295026673        3.2819357374  MEMB      30              0.0000000000
      3653        30  PMPE      C313          -21.6594697674        4.0018450372        1.3969942026  MEMB      30              0.0000000000
      3654        30  PMPE      H13X          -20.6309402811        3.9104258598        0.9642956250  MEMB      30              0.0000000000
      3655        30  PMPE      H13Y          -22.2111432681        4.7623533509        0.8031355587  MEMB      30              0.0000000000
      3656        30  PMPE      C314          -22.4864550237        2.8653745596        1.0858343917  MEMB      30              0.0000000000
      3657        30  PMPE      H14X          -23.5111007976        2.9221336407        1.4362541018  MEMB      30              0.0000000000
      3658        30  PMPE      H14Y          -21.8907030177        2.0319692224        1.5652695995  MEMB      30              0.0000000000
      3659        30  PMPE      C315          -22.5267414660        2.8731718750       -0.3492573744  MEMB      30              0.0000000000
      3660        30  PMPE      H15X          -22.6262919138        3.7332990976       -1.0450895303  MEMB      30              0.0000000000
      3661        30  PMPE      H15Y          -23.3054087556        2.2967509160       -0.7841870516  MEMB      30              0.0000000000
      3662        30  PMPE      C316          -21.2704396794        2.1897245091       -0.4195709184  MEMB      30              0.0000000000
      3663        30  PMPE      H16X          -20.3202072587        2.6997784885       -0.5240241498  MEMB      30              0.0000000000
      3664        30  PMPE      H16Y          -21.6701678391        1.8416623794       -1.3578626111  MEMB      30              0.0000000000
      3665        30  PMPE      H16Z          -20.9063783228        1.2512822844       -0.0835175993  MEMB      30              0.0000000000
      3666        31  PYPG      C13            21.5207749571       15.4227096858       18.9492802245  MEMB      31              0.0000000000
      3667        31  PYPG      H13A           21.2811133330       16.5062063234       19.0363121677  MEMB      31              0.0000000000
      3668        31  PYPG      H13B           22.3439888670       15.1397260954       19.6293456025  MEMB      31              0.0000000000
      3669        31  PYPG      OC3            21.9324634652       15.1796735312       17.6074897598  MEMB      31              0.0000000000
      3670        31  PYPG      HO3            21.1057245316       14.8652158849       17.2098358888  MEMB      31              0.0000000000
      3671        31  PYPG      C12            20.2319607613       14.6356606357       19.3078862543  MEMB      31              0.0000000000
      3672        31  PYPG      H12A           19.9505440169       14.8872646307       20.3603723240  MEMB      31              0.0000000000
      3673        31  PYPG      OC2            20.4649472410       13.2296341002       19.2091580431  MEMB      31              0.0000000000
      3674        31  PYPG      HO2            19.6043800831       12.8192598953       19.3505995033  MEMB      31              0.0000000000
      3675        31  PYPG      C11            19.1061922386       15.0739944945       18.3438044575  MEMB      31              0.0000000000
      3676        31  PYPG      H11A           18.2025162898       14.4263488608       18.3786054247  MEMB      31              0.0000000000
      3677        31  PYPG      H11B           19.5030765746       14.9684787802       17.3143990960  MEMB      31              0.0000000000
      3678        31  PYPG      P              17.5523723175       16.8602987212       19.4354630711  MEMB      31              0.0000000000
      3679        31  PYPG      O13            17.7138407944       18.1566513428       20.0846712910  MEMB      31              0.0000000000
      3680        31  PYPG      O14            17.1128232316       15.7172850897       20.2719033734  MEMB      31              0.0000000000
      3681        31  PYPG      O11            16.4683366152       17.1081016684       18.3676127051  MEMB      31              0.0000000000
      3682        31  PYPG      O12            18.8137668951       16.4543220428       18.5649678854  MEMB      31              0.0000000000
      3683        31  PYPG      C1             15.4928154256       16.1435567037       18.1175594360  MEMB      31              0.0000000000
      3684        31  PYPG      HA             14.5663479996       16.3459864243       18.6796116506  MEMB      31              0.0000000000
      3685        31  PYPG      HB             15.8584594097       15.1126677911       18.3582097779  MEMB      31              0.0000000000
      3686        31  PYPG      C2             15.2093023916       16.2147077725       16.6204690547  MEMB      31              0.0000000000
      3687        31  PYPG      HS             14.1711373791       15.6767388523       16.4751915737  MEMB      31              0.0000000000
      3688        31  PYPG      O21            16.4329775982       15.9611301779       15.7855080454  MEMB      31              0.0000000000
      3689        31  PYPG      C21            16.3868226508       14.7540042557       15.7690306546  MEMB      31              0.0000000000
      3690        31  PYPG      O22            15.4526955274       14.1997906190       16.3730679415  MEMB      31              0.0000000000
      3691        31  PYPG      C22            17.5514090510       13.9853985006       14.9400230534  MEMB      31              0.0000000000
      3692        31  PYPG      H2R            17.4794536408       12.8771496327       14.8277587087  MEMB      31              0.0000000000
      3693        31  PYPG      H2S            18.4818051460       14.0522953276       15.5071766110  MEMB      31              0.0000000000
      3694        31  PYPG      C3             14.7824358907       17.3952637984       16.0441228239  MEMB      31              0.0000000000
      3695        31  PYPG      HX             15.6328824522       18.0975894127       16.2225581661  MEMB      31              0.0000000000
      3696        31  PYPG      HY             13.8704076047       17.6387736476       16.6503330766  MEMB      31              0.0000000000
      3697        31  PYPG      O31            14.6402142269       17.0224768979       14.6417421431  MEMB      31              0.0000000000
      3698        31  PYPG      C31            13.5440710941       16.6697812219       14.0937218728  MEMB      31              0.0000000000
      3699        31  PYPG      O32            12.6248483857       16.1601761162       14.7460490128  MEMB      31              0.0000000000
      3700        31  PYPG      C32            13.4235570407       17.1765049423       12.5476169341  MEMB      31              0.0000000000
      3701        31  PYPG      H2X            12.6520024884       17.8992317769       12.2235121667  MEMB      31              0.0000000000
      3702        31  PYPG      H2Y            14.2027488135       17.7400372311       12.0260304912  MEMB      31              0.0000000000
      3703        31  PYPG      C23            17.5657032327       14.1595664297       13.4438190429  MEMB      31              0.0000000000
      3704        31  PYPG      H3R            16.6577714888       13.7207479870       12.9694324781  MEMB      31              0.0000000000
      3705        31  PYPG      H3S            18.4287834071       13.5876211114       13.0290191169  MEMB      31              0.0000000000
      3706        31  PYPG      C24            17.6556037309       15.6063540465       13.1014783063  MEMB      31              0.0000000000
      3707        31  PYPG      H4R            18.4881410016       16.0503859875       13.6904243390  MEMB      31              0.0000000000
      3708        31  PYPG      H4S            16.7091696193       16.1446515054       13.3622890181  MEMB      31              0.0000000000
      3709        31  PYPG      C25            17.9401144576       15.6354308366       11.6225545984  MEMB      31              0.0000000000
      3710        31  PYPG      H5R            17.0771452029       15.1695423051       11.1051377000  MEMB      31              0.0000000000
      3711        31  PYPG      H5S            18.8187745458       14.9904514173       11.4185148328  MEMB      31              0.0000000000
      3712        31  PYPG      C26            18.2752238869       17.0316558041       11.1408820058  MEMB      31              0.0000000000
      3713        31  PYPG      H6R            19.1642182093       17.3947480668       11.6991738143  MEMB      31              0.0000000000
      3714        31  PYPG      H6S            17.4145688308       17.6749826269       11.4207195653  MEMB      31              0.0000000000
      3715        31  PYPG      C27            18.6170657880       17.0651946476        9.6431460669  MEMB      31              0.0000000000
      3716        31  PYPG      H7R            19.3296580094       16.2742089197        9.3652167955  MEMB      31              0.0000000000
      3717        31  PYPG      H7S            19.0052399442       18.0751378746        9.3766387945  MEMB      31              0.0000000000
      3718        31  PYPG      C28            17.3782297397       16.8494257173        8.8146826426  MEMB      31              0.0000000000
      3719        31  PYPG      H8R            16.8925517468       17.7516774110        9.2351958008  MEMB      31              0.0000000000
      3720        31  PYPG      H8S            16.8394155134       15.9361504796        9.1750479012  MEMB      31              0.0000000000
      3721        31  PYPG      C29            17.3683667565       16.7947482068        7.3037200267  MEMB      31              0.0000000000
      3722        31  PYPG      H9R            16.9273644959       15.8830547758        6.9784769169  MEMB      31              0.0000000000
      3723        31  PYPG      C210           17.5250042469       17.6813261013        6.3128727537  MEMB      31              0.0000000000
      3724        31  PYPG      H10R           16.8717267974       17.6340639234        5.4375798487  MEMB      31              0.0000000000
      3725        31  PYPG      C211           17.7685624266       19.0996313137        6.5139192560  MEMB      31              0.0000000000
      3726        31  PYPG      H11R           18.3304921487       19.6398025939        5.8281890307  MEMB      31              0.0000000000
      3727        31  PYPG      H11S           18.1021566569       19.3419946734        7.5660769025  MEMB      31              0.0000000000
      3728        31  PYPG      C212           16.5111269791       19.8212684140        6.1671361315  MEMB      31              0.0000000000
      3729        31  PYPG      H12R           16.6801509795       20.9099791974        6.0969388421  MEMB      31              0.0000000000
      3730        31  PYPG      H12S           16.3069887980       19.4164700088        7.1233956056  MEMB      31              0.0000000000
      3731        31  PYPG      C213           15.2672337418       19.9258587085        5.3523721157  MEMB      31              0.0000000000
      3732        31  PYPG      H13R           14.7930991561       20.9096024337        5.6392781272  MEMB      31              0.0000000000
      3733        31  PYPG      H13S           14.5393914858       19.1059719070        5.3050647866  MEMB      31              0.0000000000
      3734        31  PYPG      C214           15.9084801651       20.3614155233        4.2231506113  MEMB      31              0.0000000000
      3735        31  PYPG      H14R           16.5898254118       21.2641693036        4.3736076837  MEMB      31              0.0000000000
      3736        31  PYPG      H14S           16.4239401202       19.3923884521        4.1802588087  MEMB      31              0.0000000000
      3737        31  PYPG      C215           15.0246753594       20.7105688175        3.1813912117  MEMB      31              0.0000000000
      3738        31  PYPG      H15R           15.1149832369       21.7997699758        3.3189208350  MEMB      31              0.0000000000
      3739        31  PYPG      H15S           14.1463473939       20.0468467415        3.2395091602  MEMB      31              0.0000000000
      3740        31  PYPG      C216           15.4030717009       20.7011219577        1.8680062789  MEMB      31              0.0000000000
      3741        31  PYPG      H16R           16.2521406821       21.3857922051        1.7381034531  MEMB      31              0.0000000000
      3742        31  PYPG      H16S           14.9934485253       20.9070439182        0.9038925110  MEMB      31              0.0000000000
      3743        31  PYPG      H16T           15.6422481848       19.6139517576        2.0444220886  MEMB      31              0.0000000000
      3744        31  PYPG      C33            13.3736510484       15.8633230193       11.9632251554  MEMB      31              0.0000000000
      3745        31  PYPG      H3X            12.5439259555       15.2637722401       12.3526255213  MEMB      31              0.0000000000
      3746        31  PYPG      H3Y            14.4477332802       15.5954696923       12.2404604365  MEMB      31              0.0000000000
      3747        31  PYPG      C34            13.3442869786       15.8019925309       10.5188658133  MEMB      31              0.0000000000
      3748        31  PYPG      H4X            13.9944564449       16.6123907457       10.4839896495  MEMB      31              0.0000000000
      3749        31  PYPG      H4Y            12.4607673263       16.1057967592        9.9324044925  MEMB      31              0.0000000000
      3750        31  PYPG      C35            14.1392416388       14.6139900401       10.1380533695  MEMB      31              0.0000000000
      3751        31  PYPG      H5X            13.6249223830       13.7832758934       10.6485699647  MEMB      31              0.0000000000
      3752        31  PYPG      H5Y            15.1903659120       14.6340292199       10.5170902359  MEMB      31              0.0000000000
      3753        31  PYPG      C36            14.1625120021       14.5229812310        8.6697337267  MEMB      31              0.0000000000
      3754        31  PYPG      H6X            14.7166535311       15.3262003834        8.1645515736  MEMB      31              0.0000000000
      3755        31  PYPG      H6Y            13.1275067049       14.3460996866        8.2586789214  MEMB      31              0.0000000000
      3756        31  PYPG      C37            15.0875352564       13.4974192457        8.2621162139  MEMB      31              0.0000000000
      3757        31  PYPG      H7X            16.1228344933       13.4338781195        8.6031023684  MEMB      31              0.0000000000
      3758        31  PYPG      H7Y            14.5573905912       12.7258038863        8.8663019674  MEMB      31              0.0000000000
      3759        31  PYPG      C38            14.9596267578       13.4659357677        6.7405345491  MEMB      31              0.0000000000
      3760        31  PYPG      H8X            13.8674120317       13.5018504605        6.5651222089  MEMB      31              0.0000000000
      3761        31  PYPG      H8Y            15.4021573607       12.5587504240        6.2497133615  MEMB      31              0.0000000000
      3762        31  PYPG      C39            15.6970508316       14.3595597159        5.8971342924  MEMB      31              0.0000000000
      3763        31  PYPG      H9X            16.7463847392       14.1529841089        6.2418924840  MEMB      31              0.0000000000
      3764        31  PYPG      H9Y            15.1969597662       15.3127356897        6.1119242834  MEMB      31              0.0000000000
      3765        31  PYPG      C310           15.5500545575       13.9564634537        4.4702803013  MEMB      31              0.0000000000
      3766        31  PYPG      H10X           14.5164345389       14.1013929304        4.0701844792  MEMB      31              0.0000000000
      3767        31  PYPG      H10Y           15.7923312050       12.8775129692        4.5381180561  MEMB      31              0.0000000000
      3768        31  PYPG      C311           16.5515140568       14.5341299481        3.5646182385  MEMB      31              0.0000000000
      3769        31  PYPG      H11X           16.6403313798       13.9724103875        2.6128771301  MEMB      31              0.0000000000
      3770        31  PYPG      H11Y           17.5086560873       14.4114156577        4.1159034242  MEMB      31              0.0000000000
      3771        31  PYPG      C312           16.1338716224       15.9699731504        3.3670368614  MEMB      31              0.0000000000
      3772        31  PYPG      H12X           16.0086949414       16.4080346026        4.3735625766  MEMB      31              0.0000000000
      3773        31  PYPG      H12Y           16.9710402929       16.4361625248        2.8240001362  MEMB      31              0.0000000000
      3774        31  PYPG      C313           14.8293257161       16.2549243853        2.6171206900  MEMB      31              0.0000000000
      3775        31  PYPG      H13X           13.9411876492       15.6897507354        2.9736837478  MEMB      31              0.0000000000
      3776        31  PYPG      H13Y           14.5863598343       17.3259760139        2.8225157822  MEMB      31              0.0000000000
      3777        31  PYPG      C314           15.0407764313       16.1024827590        1.1158002102  MEMB      31              0.0000000000
      3778        31  PYPG      H14X           15.4922478334       17.0399747452        0.7822182577  MEMB      31              0.0000000000
      3779        31  PYPG      H14Y           15.7285951197       15.2862507991        0.8233599155  MEMB      31              0.0000000000
      3780        31  PYPG      C315           13.7544939164       15.9470440848        0.3561146121  MEMB      31              0.0000000000
      3781        31  PYPG      H15X           13.9670768593       15.9538657571       -0.7384881405  MEMB      31              0.0000000000
      3782        31  PYPG      H15Y           13.2989944706       14.9712924246        0.6323903717  MEMB      31              0.0000000000
      3783        31  PYPG      C316           12.7877731708       17.0452981727        0.6994960704  MEMB      31              0.0000000000
      3784        31  PYPG      H16X           12.2137533551       16.7966736363        1.6219747215  MEMB      31              0.0000000000
      3785        31  PYPG      H16Y           12.0996890760       17.1033631977       -0.1657605088  MEMB      31              0.0000000000
      3786        31  PYPG      H16Z           13.2538643104       18.0442360939        0.8338271809  MEMB      31              0.0000000000
      3787        32  OYPE      N             -21.2321752904      -10.6815028489       21.4287645953  MEMB      32              0.0000000000
      3788        32  OYPE      HN1           -22.0402859383      -10.0299988982       21.3193258099  MEMB      32              0.0000000000
      3789        32  OYPE      HN2           -21.6039851114      -11.6404041240       21.2947138398  MEMB      32              0.0000000000
      3790        32  OYPE      HN3           -20.7817447086      -10.5520494741       22.3589156490  MEMB      32              0.0000000000
      3791        32  OYPE      C12           -20.2351088569      -10.4514767619       20.3451127189  MEMB      32              0.0000000000
      3792        32  OYPE      H12A          -19.5698407553      -11.3391753780       20.2987344640  MEMB      32              0.0000000000
      3793        32  OYPE      H12B          -19.6457234033       -9.5500166477       20.6171395303  MEMB      32              0.0000000000
      3794        32  OYPE      C11           -20.9701978129      -10.2860634606       19.0158737387  MEMB      32              0.0000000000
      3795        32  OYPE      H11A          -20.1788228527      -10.2464750745       18.2283270295  MEMB      32              0.0000000000
      3796        32  OYPE      H11B          -21.5064677641       -9.3016333444       19.0339128443  MEMB      32              0.0000000000
      3797        32  OYPE      P             -23.3198411544      -11.1993715103       18.1960676390  MEMB      32              0.0000000000
      3798        32  OYPE      O13           -23.2891785534      -10.2495227483       17.0716383881  MEMB      32              0.0000000000
      3799        32  OYPE      O14           -24.1274701014      -10.8696262518       19.3893100713  MEMB      32              0.0000000000
      3800        32  OYPE      O11           -23.7311579940      -12.6648670317       17.7865292026  MEMB      32              0.0000000000
      3801        32  OYPE      O12           -21.8421972639      -11.4023623738       18.7802571626  MEMB      32              0.0000000000
      3802        32  OYPE      C1            -22.8190725938      -13.6917694788       17.4390976985  MEMB      32              0.0000000000
      3803        32  OYPE      HA            -23.0007986414      -14.5491931075       18.1215749258  MEMB      32              0.0000000000
      3804        32  OYPE      HB            -21.7578058934      -13.3938702634       17.5647546803  MEMB      32              0.0000000000
      3805        32  OYPE      C2            -23.0586745664      -14.1619273106       15.9767176528  MEMB      32              0.0000000000
      3806        32  OYPE      HS            -22.5034579379      -15.1154142886       15.8143705425  MEMB      32              0.0000000000
      3807        32  OYPE      O21           -22.6617976029      -13.1857348213       14.9985181355  MEMB      32              0.0000000000
      3808        32  OYPE      C21           -21.3783982726      -12.9062025995       14.8926656088  MEMB      32              0.0000000000
      3809        32  OYPE      O22           -20.4830948700      -13.3745265306       15.5750844797  MEMB      32              0.0000000000
      3810        32  OYPE      C22           -21.1679536163      -11.9933817550       13.6673400085  MEMB      32              0.0000000000
      3811        32  OYPE      H2R           -20.4901453520      -11.1633260519       13.9636773052  MEMB      32              0.0000000000
      3812        32  OYPE      H2S           -22.1555353237      -11.5973189414       13.3661617623  MEMB      32              0.0000000000
      3813        32  OYPE      C3            -24.5512317337      -14.5004729435       15.7516183917  MEMB      32              0.0000000000
      3814        32  OYPE      HX            -25.2023576784      -13.6097988557       15.8673373369  MEMB      32              0.0000000000
      3815        32  OYPE      HY            -24.8517598399      -15.2297389820       16.5328856003  MEMB      32              0.0000000000
      3816        32  OYPE      O31           -24.7672599854      -15.1332612373       14.4981552475  MEMB      32              0.0000000000
      3817        32  OYPE      C31           -25.3259358717      -14.4073723737       13.5245707801  MEMB      32              0.0000000000
      3818        32  OYPE      O32           -25.2934846268      -13.2104158354       13.3779465937  MEMB      32              0.0000000000
      3819        32  OYPE      C32           -25.6896122159      -15.4154574201       12.4365512134  MEMB      32              0.0000000000
      3820        32  OYPE      H2X           -24.6557433784      -15.1912534814       12.3063686168  MEMB      32              0.0000000000
      3821        32  OYPE      H2Y           -25.8629090410      -16.4521704820       12.7688822156  MEMB      32              0.0000000000
      3822        32  OYPE      C23           -20.5351973868      -12.7102642924       12.4515010413  MEMB      32              0.0000000000
      3823        32  OYPE      H3R           -20.9663434164      -13.7284597831       12.3396719187  MEMB      32              0.0000000000
      3824        32  OYPE      H3S           -19.4594749207      -12.8400544764       12.7259319779  MEMB      32              0.0000000000
      3825        32  OYPE      C24           -20.7382047114      -12.0167003897       11.0727605389  MEMB      32              0.0000000000
      3826        32  OYPE      H4R           -20.1255713930      -12.6228404985       10.3707312311  MEMB      32              0.0000000000
      3827        32  OYPE      H4S           -20.3528335150      -10.9755935305       11.0231967106  MEMB      32              0.0000000000
      3828        32  OYPE      C25           -22.1722460798      -12.0071479215       10.4866876945  MEMB      32              0.0000000000
      3829        32  OYPE      H5R           -22.8417670652      -11.3261139563       11.0596485630  MEMB      32              0.0000000000
      3830        32  OYPE      H5S           -22.5739312597      -13.0436246611       10.5160085993  MEMB      32              0.0000000000
      3831        32  OYPE      C26           -22.2380295159      -11.5183698477        9.0310633276  MEMB      32              0.0000000000
      3832        32  OYPE      H6R           -21.7563906845      -12.2644754965        8.3592095542  MEMB      32              0.0000000000
      3833        32  OYPE      H6S           -21.6710353232      -10.5636824997        8.9524055279  MEMB      32              0.0000000000
      3834        32  OYPE      C27           -23.6629575555      -11.2720273647        8.5188455988  MEMB      32              0.0000000000
      3835        32  OYPE      H7R           -24.1071646607      -10.3784434825        9.0150619803  MEMB      32              0.0000000000
      3836        32  OYPE      H7S           -24.3337024169      -12.1326312723        8.7586903718  MEMB      32              0.0000000000
      3837        32  OYPE      C28           -23.6149518520      -11.0754568792        7.0153973097  MEMB      32              0.0000000000
      3838        32  OYPE      H8R           -23.1097873657      -11.9085582381        6.4729237378  MEMB      32              0.0000000000
      3839        32  OYPE      H8S           -23.1808275597      -10.1303819187        6.6782936297  MEMB      32              0.0000000000
      3840        32  OYPE      C29           -24.9273344889      -10.8880270733        6.4748853055  MEMB      32              0.0000000000
      3841        32  OYPE      H9R           -25.5425858214      -10.0298184212        6.7949376334  MEMB      32              0.0000000000
      3842        32  OYPE      C210          -25.5564641416      -11.8447946618        5.9209767849  MEMB      32              0.0000000000
      3843        32  OYPE      H10R          -26.3378786149      -11.3008011814        5.4315601623  MEMB      32              0.0000000000
      3844        32  OYPE      C211          -25.3422695617      -13.2964803321        5.6308419807  MEMB      32              0.0000000000
      3845        32  OYPE      H11R          -26.2730096003      -13.9196863722        5.6351915347  MEMB      32              0.0000000000
      3846        32  OYPE      H11S          -24.6681421439      -13.7102426036        6.3635811292  MEMB      32              0.0000000000
      3847        32  OYPE      C212          -24.7197679615      -13.4051511688        4.3156020195  MEMB      32              0.0000000000
      3848        32  OYPE      H12R          -24.4378808243      -14.4503960870        4.0386869697  MEMB      32              0.0000000000
      3849        32  OYPE      H12S          -23.8507118898      -12.7412283692        4.1834041838  MEMB      32              0.0000000000
      3850        32  OYPE      C213          -25.7194509317      -12.9795668799        3.3644810572  MEMB      32              0.0000000000
      3851        32  OYPE      H13R          -25.0446944942      -13.1239125311        2.5692939220  MEMB      32              0.0000000000
      3852        32  OYPE      H13S          -26.2008504250      -11.9684345717        3.3227370653  MEMB      32              0.0000000000
      3853        32  OYPE      C214          -26.6195946332      -14.0264119593        3.0245522506  MEMB      32              0.0000000000
      3854        32  OYPE      H14R          -26.9284745348      -13.5798467895        2.0571233393  MEMB      32              0.0000000000
      3855        32  OYPE      H14S          -27.4006656412      -14.1664407354        3.7697866353  MEMB      32              0.0000000000
      3856        32  OYPE      C215          -26.2232238675      -15.3250064029        2.6069656276  MEMB      32              0.0000000000
      3857        32  OYPE      H15R          -27.2051204955      -15.8721414383        2.3946869638  MEMB      32              0.0000000000
      3858        32  OYPE      H15S          -25.6400833616      -15.9722000902        3.2282937831  MEMB      32              0.0000000000
      3859        32  OYPE      C216          -25.2831303444      -15.1728168420        1.5204628520  MEMB      32              0.0000000000
      3860        32  OYPE      H16R          -24.2152308855      -15.1456444496        1.5483512264  MEMB      32              0.0000000000
      3861        32  OYPE      H16S          -25.5412653442      -14.6178478989        0.5970952245  MEMB      32              0.0000000000
      3862        32  OYPE      H16T          -25.6210633660      -16.2169829531        1.4411072156  MEMB      32              0.0000000000
      3863        32  OYPE      C33           -26.1486522490      -15.2553528592       10.9698691775  MEMB      32              0.0000000000
      3864        32  OYPE      H3X           -25.7137996187      -14.3859610104       10.4299414965  MEMB      32              0.0000000000
      3865        32  OYPE      H3Y           -27.1759677271      -15.1745325069       11.3414407702  MEMB      32              0.0000000000
      3866        32  OYPE      C34           -26.3652813989      -16.4752425127       10.0272097833  MEMB      32              0.0000000000
      3867        32  OYPE      H4X           -26.4580041697      -17.4335821241       10.6140730968  MEMB      32              0.0000000000
      3868        32  OYPE      H4Y           -27.2604344373      -16.2748499131        9.4297090144  MEMB      32              0.0000000000
      3869        32  OYPE      C35           -25.2674869704      -16.7415864358        8.9955263824  MEMB      32              0.0000000000
      3870        32  OYPE      H5X           -25.1929386579      -17.8211970056        8.7238314743  MEMB      32              0.0000000000
      3871        32  OYPE      H5Y           -24.7187842721      -16.5870831614        9.8915008331  MEMB      32              0.0000000000
      3872        32  OYPE      C36           -24.8741246938      -15.7583307425        7.8204383137  MEMB      32              0.0000000000
      3873        32  OYPE      H6X           -25.8655079599      -15.5205182164        7.3897110202  MEMB      32              0.0000000000
      3874        32  OYPE      H6Y           -24.4664888440      -14.8216867133        8.2344770606  MEMB      32              0.0000000000
      3875        32  OYPE      C37           -24.0022294306      -16.1747987738        6.5467466706  MEMB      32              0.0000000000
      3876        32  OYPE      H7X           -24.4717525961      -17.0473063119        6.0599926832  MEMB      32              0.0000000000
      3877        32  OYPE      H7Y           -23.8757084165      -15.2969338906        5.8823286212  MEMB      32              0.0000000000
      3878        32  OYPE      C38           -22.4745451581      -16.1784088848        6.2728096767  MEMB      32              0.0000000000
      3879        32  OYPE      H8X           -22.7009951517      -17.3359463252        6.3164401703  MEMB      32              0.0000000000
      3880        32  OYPE      H8Y           -21.6384863074      -16.8407866203        6.3558372083  MEMB      32              0.0000000000
      3881        32  OYPE      C39           -21.8059924977      -15.2136880203        7.2997896894  MEMB      32              0.0000000000
      3882        32  OYPE      H9X           -21.9812417473      -15.1447788834        8.3461216630  MEMB      32              0.0000000000
      3883        32  OYPE      C310          -20.6550805694      -14.6669643243        7.2671891514  MEMB      32              0.0000000000
      3884        32  OYPE      H10X          -20.1628652670      -14.2536964379        8.1906306071  MEMB      32              0.0000000000
      3885        32  OYPE      C311          -19.9670999843      -15.0091246100        6.0499864320  MEMB      32              0.0000000000
      3886        32  OYPE      H11X          -19.7351324311      -16.0697731213        5.8290413664  MEMB      32              0.0000000000
      3887        32  OYPE      H11Y          -20.5956975021      -14.5456940341        5.2656173791  MEMB      32              0.0000000000
      3888        32  OYPE      C312          -18.7941441460      -14.2151101483        6.1852323412  MEMB      32              0.0000000000
      3889        32  OYPE      H12X          -18.3657139021      -14.3481570937        5.1737834795  MEMB      32              0.0000000000
      3890        32  OYPE      H12Y          -18.0591883642      -14.6820452482        6.8863702714  MEMB      32              0.0000000000
      3891        32  OYPE      C313          -19.1059656058      -12.7539084602        6.5953507742  MEMB      32              0.0000000000
      3892        32  OYPE      H13X          -19.0948085120      -12.5669495148        7.6947455268  MEMB      32              0.0000000000
      3893        32  OYPE      H13Y          -18.1829792353      -12.3929915379        6.3616006272  MEMB      32              0.0000000000
      3894        32  OYPE      C314          -20.0487054605      -11.8504831403        5.7645082177  MEMB      32              0.0000000000
      3895        32  OYPE      H14X          -20.1343314148      -10.9041328447        6.3608653615  MEMB      32              0.0000000000
      3896        32  OYPE      H14Y          -20.9537099136      -12.4526926349        5.6615220599  MEMB      32              0.0000000000
      3897        32  OYPE      C315          -19.6957595305      -11.3568062650        4.3532157677  MEMB      32              0.0000000000
      3898        32  OYPE      H15X          -19.3658301564      -12.0974229801        3.5772136358  MEMB      32              0.0000000000
      3899        32  OYPE      H15Y          -19.1121004579      -10.4724142604        4.5871312486  MEMB      32              0.0000000000
      3900        32  OYPE      C316          -20.5258127595      -10.3870719953        3.5972454255  MEMB      32              0.0000000000
      3901        32  OYPE      H16X          -19.8356060333      -10.0780231223        2.7511362837  MEMB      32              0.0000000000
      3902        32  OYPE      H16Y          -20.7477574570       -9.4886006912        4.2088564140  MEMB      32              0.0000000000
      3903        32  OYPE      C317          -21.6866162530      -11.2577590694        3.3592589538  MEMB      32              0.0000000000
      3904        32  OYPE      H17X          -22.1045389400      -11.6862191919        4.2743407668  MEMB      32              0.0000000000
      3905        32  OYPE      H17Y          -21.3228627283      -12.2492671889        2.9677831316  MEMB      32              0.0000000000
      3906        32  OYPE      C318          -22.7124009941      -10.5383323868        2.5161922301  MEMB      32              0.0000000000
      3907        32  OYPE      H18X          -23.3483640395       -9.8397794482        3.0608240685  MEMB      32              0.0000000000
      3908        32  OYPE      H18Y          -22.3038093843      -10.0050719061        1.6270878556  MEMB      32              0.0000000000
      3909        32  OYPE      H18Z          -23.2413433597      -11.3851690418        2.0809381977  MEMB      32              0.0000000000
      3910        33  OYPE      N               3.3522586318       22.5020266493       19.9041309959  MEMB      33              0.0000000000
      3911        33  OYPE      HN1             3.8035942318       22.3623719045       18.9716758217  MEMB      33              0.0000000000
      3912        33  OYPE      HN2             3.9792588266       22.0670554419       20.6045978754  MEMB      33              0.0000000000
      3913        33  OYPE      HN3             2.4307810415       22.0226112690       19.9213263199  MEMB      33              0.0000000000
      3914        33  OYPE      C12             3.1632771254       23.9725472033       20.1326791032  MEMB      33              0.0000000000
      3915        33  OYPE      H12A            2.4115927318       24.0735136374       20.9389176144  MEMB      33              0.0000000000
      3916        33  OYPE      H12B            2.7719253705       24.4465271424       19.2077973089  MEMB      33              0.0000000000
      3917        33  OYPE      C11             4.5022018802       24.5853980445       20.5437141883  MEMB      33              0.0000000000
      3918        33  OYPE      H11A            4.7701602371       24.1270990679       21.5256054885  MEMB      33              0.0000000000
      3919        33  OYPE      H11B            4.3944924827       25.6790996588       20.7282416541  MEMB      33              0.0000000000
      3920        33  OYPE      P               5.6532484171       25.1296117627       18.2266427367  MEMB      33              0.0000000000
      3921        33  OYPE      O13             5.3976447602       26.5487383640       18.5917675707  MEMB      33              0.0000000000
      3922        33  OYPE      O14             4.7389808902       24.4652090768       17.2745788586  MEMB      33              0.0000000000
      3923        33  OYPE      O11             7.1453334214       24.8816804032       17.7917107535  MEMB      33              0.0000000000
      3924        33  OYPE      O12             5.5252477736       24.2911167717       19.5823142181  MEMB      33              0.0000000000
      3925        33  OYPE      C1              8.2462508233       25.6278687840       18.3171724934  MEMB      33              0.0000000000
      3926        33  OYPE      HA              8.2957890916       25.5392533103       19.4190895511  MEMB      33              0.0000000000
      3927        33  OYPE      HB              8.1242693232       26.7095337419       18.0857093817  MEMB      33              0.0000000000
      3928        33  OYPE      C2              9.6319204695       25.1509385848       17.7548139080  MEMB      33              0.0000000000
      3929        33  OYPE      HS             10.3758147147       25.9463691738       18.0003269811  MEMB      33              0.0000000000
      3930        33  OYPE      O21             9.6418738706       24.9391140554       16.3411393521  MEMB      33              0.0000000000
      3931        33  OYPE      C21             9.3480273912       25.9667607283       15.5979706878  MEMB      33              0.0000000000
      3932        33  OYPE      O22             9.3032512593       27.1262397238       15.9210729856  MEMB      33              0.0000000000
      3933        33  OYPE      C22             9.0170992229       25.4700132708       14.2161655375  MEMB      33              0.0000000000
      3934        33  OYPE      H2R             8.7184925022       26.3358354456       13.5967561617  MEMB      33              0.0000000000
      3935        33  OYPE      H2S             8.1718882902       24.7557543130       14.2891329248  MEMB      33              0.0000000000
      3936        33  OYPE      C3             10.1008207690       23.8090250012       18.3923890966  MEMB      33              0.0000000000
      3937        33  OYPE      HX             10.1879225022       23.9486676510       19.4891068329  MEMB      33              0.0000000000
      3938        33  OYPE      HY             11.1262130236       23.5817237741       18.0149141987  MEMB      33              0.0000000000
      3939        33  OYPE      O31             9.1755657754       22.7202490621       18.1698835054  MEMB      33              0.0000000000
      3940        33  OYPE      C31             9.3135417299       22.0140072035       17.0499024705  MEMB      33              0.0000000000
      3941        33  OYPE      O32            10.1791338647       22.1633092134       16.2140148226  MEMB      33              0.0000000000
      3942        33  OYPE      C32             8.1365464802       21.0162964718       16.9105332374  MEMB      33              0.0000000000
      3943        33  OYPE      H2X             8.4930938790       20.1659101270       16.3048115579  MEMB      33              0.0000000000
      3944        33  OYPE      H2Y             7.8765202076       20.6432968551       17.9263985686  MEMB      33              0.0000000000
      3945        33  OYPE      C23            10.2247745409       24.8007644328       13.6052229715  MEMB      33              0.0000000000
      3946        33  OYPE      H3R            10.6746046918       24.0327958519       14.2907906037  MEMB      33              0.0000000000
      3947        33  OYPE      H3S            11.0119842215       25.5544572167       13.3770494699  MEMB      33              0.0000000000
      3948        33  OYPE      C24             9.8611081103       24.1061657003       12.3145127365  MEMB      33              0.0000000000
      3949        33  OYPE      H4R             9.1852488777       23.2328952292       12.4702245985  MEMB      33              0.0000000000
      3950        33  OYPE      H4S            10.9042254656       23.7342470956       12.2131518087  MEMB      33              0.0000000000
      3951        33  OYPE      C25             9.4024286360       25.0510694591       11.1435213033  MEMB      33              0.0000000000
      3952        33  OYPE      H5R            10.3129418727       25.6721917427       10.9430336943  MEMB      33              0.0000000000
      3953        33  OYPE      H5S             8.5005024837       25.6017056563       11.4120838138  MEMB      33              0.0000000000
      3954        33  OYPE      C26             8.8568794986       24.4342003772        9.8105380466  MEMB      33              0.0000000000
      3955        33  OYPE      H6R             8.1200392084       23.6256207090        9.8112619200  MEMB      33              0.0000000000
      3956        33  OYPE      H6S             9.6591029380       23.8358734952       10.0590483525  MEMB      33              0.0000000000
      3957        33  OYPE      C27             9.1028193081       25.0950793369        8.3879956207  MEMB      33              0.0000000000
      3958        33  OYPE      H7R            10.0518344715       25.6769452377        8.4450796624  MEMB      33              0.0000000000
      3959        33  OYPE      H7S             8.2435955309       25.7871370095        8.3592753788  MEMB      33              0.0000000000
      3960        33  OYPE      C28             8.9531450165       24.2910153823        6.9772397590  MEMB      33              0.0000000000
      3961        33  OYPE      H8R             8.9553321292       25.0784106315        6.1987414122  MEMB      33              0.0000000000
      3962        33  OYPE      H8S             8.1023415824       23.6083852477        7.0967962197  MEMB      33              0.0000000000
      3963        33  OYPE      C29             9.6401030634       23.2840331740        6.1338221933  MEMB      33              0.0000000000
      3964        33  OYPE      H9R             9.7273898656       22.3015048416        6.6732965027  MEMB      33              0.0000000000
      3965        33  OYPE      C210           10.6873359800       23.6519602380        5.4000057241  MEMB      33              0.0000000000
      3966        33  OYPE      H10R           11.3871254441       22.8826747891        5.4803714997  MEMB      33              0.0000000000
      3967        33  OYPE      C211           11.4701531423       24.9897913094        5.1823544531  MEMB      33              0.0000000000
      3968        33  OYPE      H11R           12.6024535134       25.1860867970        5.2900409691  MEMB      33              0.0000000000
      3969        33  OYPE      H11S           11.2880540572       25.8399473110        5.8362443381  MEMB      33              0.0000000000
      3970        33  OYPE      C212           11.1624016752       24.8351442000        3.7518506585  MEMB      33              0.0000000000
      3971        33  OYPE      H12R           10.0842470421       24.8175971951        3.5175893604  MEMB      33              0.0000000000
      3972        33  OYPE      H12S           11.4087498516       23.8797322648        3.3179694445  MEMB      33              0.0000000000
      3973        33  OYPE      C213           11.9698886598       25.7430804968        2.9101157891  MEMB      33              0.0000000000
      3974        33  OYPE      H13R           11.6829538151       26.7436768554        3.2632423590  MEMB      33              0.0000000000
      3975        33  OYPE      H13S           11.5033963140       25.5014035666        1.9388240958  MEMB      33              0.0000000000
      3976        33  OYPE      C214           13.4881898988       25.5397949198        2.9326417974  MEMB      33              0.0000000000
      3977        33  OYPE      H14R           13.8953930232       24.5518069230        3.1542430857  MEMB      33              0.0000000000
      3978        33  OYPE      H14S           14.0509831674       26.1288933900        3.6495611696  MEMB      33              0.0000000000
      3979        33  OYPE      C215           14.1033287315       25.4194512425        1.6208175120  MEMB      33              0.0000000000
      3980        33  OYPE      H15R           15.1160160610       25.8391025468        1.6584318709  MEMB      33              0.0000000000
      3981        33  OYPE      H15S           14.2956692977       26.1217643368        0.8760470947  MEMB      33              0.0000000000
      3982        33  OYPE      C216           13.3554098215       24.6780488930        0.5687690762  MEMB      33              0.0000000000
      3983        33  OYPE      H16R           12.3490263712       24.9631449528        0.2913240905  MEMB      33              0.0000000000
      3984        33  OYPE      H16S           13.4593440437       23.6474874450        0.5447548140  MEMB      33              0.0000000000
      3985        33  OYPE      H16T           13.8984514634       24.8589602915       -0.3190644430  MEMB      33              0.0000000000
      3986        33  OYPE      C33             6.8732866972       21.6171328020       16.2323208909  MEMB      33              0.0000000000
      3987        33  OYPE      H3X             6.6267303167       22.5822990500       16.7244135175  MEMB      33              0.0000000000
      3988        33  OYPE      H3Y             6.0241869498       20.9193056479       16.3969873392  MEMB      33              0.0000000000
      3989        33  OYPE      C34             6.9656164345       21.7867497332       14.7007767635  MEMB      33              0.0000000000
      3990        33  OYPE      H4X             7.9561641963       22.1994892906       14.4222450279  MEMB      33              0.0000000000
      3991        33  OYPE      H4Y             6.9133510252       20.7924214146       14.2180694110  MEMB      33              0.0000000000
      3992        33  OYPE      C35             5.7940539398       22.5839174877       14.0929288878  MEMB      33              0.0000000000
      3993        33  OYPE      H5X             5.6952464743       23.5766909004       14.5853394981  MEMB      33              0.0000000000
      3994        33  OYPE      H5Y             4.8553718882       22.0135801116       14.2832508962  MEMB      33              0.0000000000
      3995        33  OYPE      C36             5.9172190242       22.7317374031       12.5683062728  MEMB      33              0.0000000000
      3996        33  OYPE      H6X             6.8710815709       23.2356917377       12.3087133498  MEMB      33              0.0000000000
      3997        33  OYPE      H6Y             5.9395248278       21.7066442387       12.1264895235  MEMB      33              0.0000000000
      3998        33  OYPE      C37             4.7335636857       23.4539572739       11.9075575801  MEMB      33              0.0000000000
      3999        33  OYPE      H7X             4.8375519943       23.2936593022       10.8092942688  MEMB      33              0.0000000000
      4000        33  OYPE      H7Y             3.7940176103       22.9463820466       12.2278156610  MEMB      33              0.0000000000
      4001        33  OYPE      C38             4.5236379856       24.9496876110       12.2625657952  MEMB      33              0.0000000000
      4002        33  OYPE      H8X             3.6265294068       25.2365102974       11.6751265527  MEMB      33              0.0000000000
      4003        33  OYPE      H8Y             4.2302091369       25.0646359893       13.3299717738  MEMB      33              0.0000000000
      4004        33  OYPE      C39             5.6638430126       25.8952634371       12.0074434703  MEMB      33              0.0000000000
      4005        33  OYPE      H9X             6.5096028601       25.7735049588       12.7018837948  MEMB      33              0.0000000000
      4006        33  OYPE      C310            5.6965613883       26.9281141649       11.1485629102  MEMB      33              0.0000000000
      4007        33  OYPE      H10X            6.6556939557       27.4478451756       11.0193875589  MEMB      33              0.0000000000
      4008        33  OYPE      C311            4.6372630555       27.4424167974       10.2036672456  MEMB      33              0.0000000000
      4009        33  OYPE      H11X            3.5857192452       27.2225365097       10.5084645327  MEMB      33              0.0000000000
      4010        33  OYPE      H11Y            4.7428961867       28.5482295574       10.1937765117  MEMB      33              0.0000000000
      4011        33  OYPE      C312            4.8764296424       26.9225676351        8.7716688709  MEMB      33              0.0000000000
      4012        33  OYPE      H12X            4.3615385811       25.9410939368        8.6752018909  MEMB      33              0.0000000000
      4013        33  OYPE      H12Y            5.9650523169       26.7365577753        8.6238013533  MEMB      33              0.0000000000
      4014        33  OYPE      C313            4.3330083285       27.8703905818        7.6832353282  MEMB      33              0.0000000000
      4015        33  OYPE      H13X            3.2316207671       27.7101216375        7.6194353167  MEMB      33              0.0000000000
      4016        33  OYPE      H13Y            4.4949423681       28.9315217677        7.9677852674  MEMB      33              0.0000000000
      4017        33  OYPE      C314            4.9171175613       27.6768244232        6.2729741760  MEMB      33              0.0000000000
      4018        33  OYPE      H14X            6.0010253235       27.9158446704        6.2337218080  MEMB      33              0.0000000000
      4019        33  OYPE      H14Y            4.4021910552       28.4236482302        5.6210274653  MEMB      33              0.0000000000
      4020        33  OYPE      C315            4.6349845331       26.2708583531        5.7307112287  MEMB      33              0.0000000000
      4021        33  OYPE      H15X            3.5908902270       26.0394233402        6.0487718742  MEMB      33              0.0000000000
      4022        33  OYPE      H15Y            5.2900706515       25.5056233047        6.2032221405  MEMB      33              0.0000000000
      4023        33  OYPE      C316            4.7399373290       26.1793646341        4.1970682111  MEMB      33              0.0000000000
      4024        33  OYPE      H16X            4.2259125973       27.0612063381        3.7565418199  MEMB      33              0.0000000000
      4025        33  OYPE      H16Y            4.1923685562       25.2728334147        3.8537732058  MEMB      33              0.0000000000
      4026        33  OYPE      C317            6.1868929313       26.1473120146        3.6730617941  MEMB      33              0.0000000000
      4027        33  OYPE      H17X            6.7828093840       25.4110916418        4.2630398485  MEMB      33              0.0000000000
      4028        33  OYPE      H17Y            6.6194095748       27.1628472377        3.8243139931  MEMB      33              0.0000000000
      4029        33  OYPE      C318            6.3423523256       25.7248293080        2.2088284034  MEMB      33              0.0000000000
      4030        33  OYPE      H18X            5.8656392793       26.4376202267        1.5033837376  MEMB      33              0.0000000000
      4031        33  OYPE      H18Y            7.4229533394       25.6280047180        1.9572064017  MEMB      33              0.0000000000
      4032        33  OYPE      H18Z            5.8719910140       24.7264844886        2.0834071515  MEMB      33              0.0000000000
      4033        34  PMPG      C13            -9.4549656600       21.3854900157       20.4033739624  MEMB      34              0.0000000000
      4034        34  PMPG      H13A           -8.9509809371       20.7059742102       21.1207934329  MEMB      34              0.0000000000
      4035        34  PMPG      H13B           -9.7406849834       22.3362827821       20.9077092504  MEMB      34              0.0000000000
      4036        34  PMPG      OC3           -10.6319847635       20.7129102325       19.9419130613  MEMB      34              0.0000000000
      4037        34  PMPG      HO3           -11.3629446372       21.3352455868       20.0921804396  MEMB      34              0.0000000000
      4038        34  PMPG      C12            -8.4284644009       21.7354227631       19.2912446704  MEMB      34              0.0000000000
      4039        34  PMPG      H12A           -8.2551805426       20.8298312857       18.6739395191  MEMB      34              0.0000000000
      4040        34  PMPG      OC2            -7.1643034010       22.0988438997       19.8608282138  MEMB      34              0.0000000000
      4041        34  PMPG      HO2            -6.7559933960       22.5747510316       19.1360600150  MEMB      34              0.0000000000
      4042        34  PMPG      C11            -8.9203954900       22.8563470379       18.3401708452  MEMB      34              0.0000000000
      4043        34  PMPG      H11A           -9.7189430206       22.4186437572       17.6877412717  MEMB      34              0.0000000000
      4044        34  PMPG      H11B           -8.0705857896       23.1408874639       17.6788946164  MEMB      34              0.0000000000
      4045        34  PMPG      P             -10.2324154353       25.1528162434       18.4545767171  MEMB      34              0.0000000000
      4046        34  PMPG      O13            -9.4726120841       25.7273281372       17.3245669423  MEMB      34              0.0000000000
      4047        34  PMPG      O14           -10.7150386365       26.0845685527       19.5033808150  MEMB      34              0.0000000000
      4048        34  PMPG      O11           -11.4679923529       24.3528409542       17.9181274467  MEMB      34              0.0000000000
      4049        34  PMPG      O12            -9.3802004469       23.9853349963       19.1028345644  MEMB      34              0.0000000000
      4050        34  PMPG      C1            -12.2872209592       23.7238090905       18.9088617088  MEMB      34              0.0000000000
      4051        34  PMPG      HA            -12.9589276762       24.4648733678       19.4121281665  MEMB      34              0.0000000000
      4052        34  PMPG      HB            -11.7236327028       23.1304101335       19.6506257068  MEMB      34              0.0000000000
      4053        34  PMPG      C2            -13.1149482768       22.6740676111       18.2402517780  MEMB      34              0.0000000000
      4054        34  PMPG      HS            -13.7381878547       22.1101762515       18.9279224789  MEMB      34              0.0000000000
      4055        34  PMPG      O21           -12.3155097579       21.7749903107       17.4605171251  MEMB      34              0.0000000000
      4056        34  PMPG      C21           -12.7463978524       20.5303646482       17.1595927263  MEMB      34              0.0000000000
      4057        34  PMPG      O22           -13.8026163035       20.0443324808       17.4987301743  MEMB      34              0.0000000000
      4058        34  PMPG      C22           -11.7868189140       20.0184674452       16.0602025574  MEMB      34              0.0000000000
      4059        34  PMPG      H2R           -11.0827403717       19.3795500442       16.5753295544  MEMB      34              0.0000000000
      4060        34  PMPG      H2S           -11.2915172849       20.9294447669       15.6342124213  MEMB      34              0.0000000000
      4061        34  PMPG      C3            -14.1011994565       23.4837039212       17.4474105057  MEMB      34              0.0000000000
      4062        34  PMPG      HX            -14.9145742110       23.8995945823       18.0534953066  MEMB      34              0.0000000000
      4063        34  PMPG      HY            -14.6445869117       22.6362741965       17.0725731828  MEMB      34              0.0000000000
      4064        34  PMPG      O31           -13.6773498141       24.4977333779       16.5008186357  MEMB      34              0.0000000000
      4065        34  PMPG      C31           -13.2894413712       24.3164074364       15.2560779236  MEMB      34              0.0000000000
      4066        34  PMPG      O32           -13.8125858288       23.8047866117       14.3012044874  MEMB      34              0.0000000000
      4067        34  PMPG      C32           -12.2795065161       25.2504950209       14.8540006591  MEMB      34              0.0000000000
      4068        34  PMPG      H2X           -11.7939979207       25.7256276713       15.7138031343  MEMB      34              0.0000000000
      4069        34  PMPG      H2Y           -13.0422294312       25.8665128950       14.3427234670  MEMB      34              0.0000000000
      4070        34  PMPG      C23           -12.3324158780       19.1922488017       14.8649138973  MEMB      34              0.0000000000
      4071        34  PMPG      H3R           -12.5117327856       20.0143680850       14.1965003085  MEMB      34              0.0000000000
      4072        34  PMPG      H3S           -13.1980036552       18.5433854781       15.0305766869  MEMB      34              0.0000000000
      4073        34  PMPG      C24           -11.3885013416       18.6412288879       13.8403888160  MEMB      34              0.0000000000
      4074        34  PMPG      H4R           -11.8730264419       18.2077431561       12.9302974516  MEMB      34              0.0000000000
      4075        34  PMPG      H4S           -10.7496226981       17.8839480355       14.3446877928  MEMB      34              0.0000000000
      4076        34  PMPG      C25           -10.5875832860       19.8389636212       13.3793043171  MEMB      34              0.0000000000
      4077        34  PMPG      H5R            -9.6469283983       19.2794933775       13.4009553115  MEMB      34              0.0000000000
      4078        34  PMPG      H5S           -10.2077643508       20.5060314275       14.1476576168  MEMB      34              0.0000000000
      4079        34  PMPG      C26           -11.2323021701       20.8605122842       12.3242387819  MEMB      34              0.0000000000
      4080        34  PMPG      H6R           -10.5440616554       21.6688246334       12.0674476269  MEMB      34              0.0000000000
      4081        34  PMPG      H6S           -11.9425584501       21.4586371752       12.9227665470  MEMB      34              0.0000000000
      4082        34  PMPG      C27           -11.8554951696       20.4430611324       10.9289704976  MEMB      34              0.0000000000
      4083        34  PMPG      H7R           -12.5376202374       21.2061317839       10.5569053796  MEMB      34              0.0000000000
      4084        34  PMPG      H7S           -12.3430094278       19.4444037582       11.1104295087  MEMB      34              0.0000000000
      4085        34  PMPG      C28           -10.9976113939       20.3954932757        9.5864042854  MEMB      34              0.0000000000
      4086        34  PMPG      H8R           -11.3090390445       19.8540763008        8.6859025805  MEMB      34              0.0000000000
      4087        34  PMPG      H8S           -10.6579418527       19.6471349845       10.2442721809  MEMB      34              0.0000000000
      4088        34  PMPG      C29            -9.8779001385       21.3870180157        9.1825321129  MEMB      34              0.0000000000
      4089        34  PMPG      H9R           -10.0925101129       22.3863604308        9.5540466574  MEMB      34              0.0000000000
      4090        34  PMPG      C217           -8.3604586730       21.3039459629        9.1220452626  MEMB      34              0.0000000000
      4091        34  PMPG      H17R           -8.1039752866       22.2523919795        9.5147805671  MEMB      34              0.0000000000
      4092        34  PMPG      H17S           -7.6468388803       20.4961908660        9.2915835119  MEMB      34              0.0000000000
      4093        34  PMPG      C210           -9.0961505991       21.2717593029        7.8527218206  MEMB      34              0.0000000000
      4094        34  PMPG      H10R           -8.8883891207       22.1897456159        7.3258048484  MEMB      34              0.0000000000
      4095        34  PMPG      C211           -8.6480273591       20.0476624082        7.0921593049  MEMB      34              0.0000000000
      4096        34  PMPG      H11R           -8.3626030667       19.1798089593        7.6821108182  MEMB      34              0.0000000000
      4097        34  PMPG      H11S           -9.4076312134       19.8146067212        6.3225125528  MEMB      34              0.0000000000
      4098        34  PMPG      C212           -7.2529647355       19.8585255825        6.6543384633  MEMB      34              0.0000000000
      4099        34  PMPG      H12R           -6.5331367410       19.6988456874        7.4963922266  MEMB      34              0.0000000000
      4100        34  PMPG      H12S           -7.1330287869       20.8278582001        6.1988325134  MEMB      34              0.0000000000
      4101        34  PMPG      C213           -7.2513885881       18.6037584556        5.7990096707  MEMB      34              0.0000000000
      4102        34  PMPG      H13R           -8.1630836534       18.4723572833        5.1723571749  MEMB      34              0.0000000000
      4103        34  PMPG      H13S           -7.1124893740       17.6962608628        6.3749014831  MEMB      34              0.0000000000
      4104        34  PMPG      C214           -6.1185148710       18.6434647151        4.9322288405  MEMB      34              0.0000000000
      4105        34  PMPG      H14R           -5.9953181180       17.7812761969        4.3344469853  MEMB      34              0.0000000000
      4106        34  PMPG      H14S           -5.1822531170       19.0326388847        5.4395317798  MEMB      34              0.0000000000
      4107        34  PMPG      C215           -6.5600157038       19.5243298181        3.8992851896  MEMB      34              0.0000000000
      4108        34  PMPG      H15R           -5.4481216150       19.5034915425        3.6762865729  MEMB      34              0.0000000000
      4109        34  PMPG      H15S           -6.8690274598       20.4523167233        4.3857881838  MEMB      34              0.0000000000
      4110        34  PMPG      C216           -7.5079706471       19.2774511151        2.6931774935  MEMB      34              0.0000000000
      4111        34  PMPG      H16R           -7.1158361205       18.7674241199        1.8097747425  MEMB      34              0.0000000000
      4112        34  PMPG      H16S           -7.7135351609       20.1129332304        2.0639182848  MEMB      34              0.0000000000
      4113        34  PMPG      H16T           -8.5489988045       19.1860355608        2.9488290935  MEMB      34              0.0000000000
      4114        34  PMPG      C33           -11.3920746942       24.6082163470       13.7603800675  MEMB      34              0.0000000000
      4115        34  PMPG      H3X           -11.1791383385       23.5405456093       13.9910815108  MEMB      34              0.0000000000
      4116        34  PMPG      H3Y           -10.4621100046       25.2042302905       13.8432526166  MEMB      34              0.0000000000
      4117        34  PMPG      C34           -12.0318453118       24.7532323755       12.3546199275  MEMB      34              0.0000000000
      4118        34  PMPG      H4X           -12.3115309735       25.8091387212       12.3319375708  MEMB      34              0.0000000000
      4119        34  PMPG      H4Y           -12.9611504472       24.1451648068       12.2769818373  MEMB      34              0.0000000000
      4120        34  PMPG      C35           -11.2105386057       24.4923249524       11.0955573246  MEMB      34              0.0000000000
      4121        34  PMPG      H5X           -11.9066056970       24.2881806845       10.2452984601  MEMB      34              0.0000000000
      4122        34  PMPG      H5Y           -10.6151820478       23.5789037728       11.2692458128  MEMB      34              0.0000000000
      4123        34  PMPG      C36           -10.2634295987       25.6281699448       10.7100907044  MEMB      34              0.0000000000
      4124        34  PMPG      H6X            -9.6070800388       25.8205506199       11.5868053246  MEMB      34              0.0000000000
      4125        34  PMPG      H6Y           -10.7653299664       26.5920495359       10.4563738490  MEMB      34              0.0000000000
      4126        34  PMPG      C37            -9.4159649481       25.2317777839        9.5040588652  MEMB      34              0.0000000000
      4127        34  PMPG      H7X            -8.9274968544       24.2555302725        9.7081015318  MEMB      34              0.0000000000
      4128        34  PMPG      H7Y            -8.6174872119       25.9995944324        9.4031737944  MEMB      34              0.0000000000
      4129        34  PMPG      C38           -10.2307686444       25.1884885359        8.1986067305  MEMB      34              0.0000000000
      4130        34  PMPG      H8X           -10.9625581172       26.0292580112        8.2214014875  MEMB      34              0.0000000000
      4131        34  PMPG      H8Y           -10.8044487330       24.2431248668        8.1086492580  MEMB      34              0.0000000000
      4132        34  PMPG      C39            -9.3191403496       25.3435714147        6.9781118064  MEMB      34              0.0000000000
      4133        34  PMPG      H9X            -8.3913312559       24.7640471773        7.1762709330  MEMB      34              0.0000000000
      4134        34  PMPG      H9Y            -9.0414737135       26.4242597906        6.9490110269  MEMB      34              0.0000000000
      4135        34  PMPG      C310           -9.9141426017       24.9192856574        5.6097985079  MEMB      34              0.0000000000
      4136        34  PMPG      H10X           -9.1806251076       25.2666517052        4.8448643727  MEMB      34              0.0000000000
      4137        34  PMPG      H10Y          -10.8789765064       25.4401407784        5.4376556713  MEMB      34              0.0000000000
      4138        34  PMPG      C311          -10.1003219379       23.4002705627        5.3851997713  MEMB      34              0.0000000000
      4139        34  PMPG      H11X          -10.6367301283       22.9554269218        6.2518431132  MEMB      34              0.0000000000
      4140        34  PMPG      H11Y           -9.0734818239       22.9696558063        5.3338562256  MEMB      34              0.0000000000
      4141        34  PMPG      C312          -10.8620924323       22.9598910597        4.1149854924  MEMB      34              0.0000000000
      4142        34  PMPG      H12X          -10.4596786027       23.4689102280        3.2101681950  MEMB      34              0.0000000000
      4143        34  PMPG      H12Y          -11.9379354529       23.2284699945        4.2003998352  MEMB      34              0.0000000000
      4144        34  PMPG      C313          -10.8414474293       21.4319869449        3.9039339402  MEMB      34              0.0000000000
      4145        34  PMPG      H13X          -11.6467757115       20.9799572566        4.5276897130  MEMB      34              0.0000000000
      4146        34  PMPG      H13Y           -9.8686945506       21.0001584715        4.2294204666  MEMB      34              0.0000000000
      4147        34  PMPG      C314          -11.1438107527       21.0332523494        2.4610884408  MEMB      34              0.0000000000
      4148        34  PMPG      H14X          -11.1908537216       19.9235484616        2.3627731653  MEMB      34              0.0000000000
      4149        34  PMPG      H14Y          -10.3215666827       21.3875546964        1.7999874681  MEMB      34              0.0000000000
      4150        34  PMPG      C315          -12.4814126640       21.5962864544        1.9820992994  MEMB      34              0.0000000000
      4151        34  PMPG      H15X          -12.3729285262       22.6907259047        1.8094495384  MEMB      34              0.0000000000
      4152        34  PMPG      H15Y          -13.2574277967       21.4650465249        2.7747472682  MEMB      34              0.0000000000
      4153        34  PMPG      C316          -12.8945420405       20.8904616703        0.6953297689  MEMB      34              0.0000000000
      4154        34  PMPG      H16X          -12.0249317287       20.8557729922        0.0040325676  MEMB      34              0.0000000000
      4155        34  PMPG      H16Y          -13.7385057612       21.4078369228        0.1930360390  MEMB      34              0.0000000000
      4156        34  PMPG      H16Z          -13.1700193935       19.8367115885        0.9171122918  MEMB      34              0.0000000000
      4157        35  PMPE      N             -17.0980475477       16.8934281909       21.3752056122  MEMB      35              0.0000000000
      4158        35  PMPE      HN1           -16.5282419575       16.6744987851       20.5203364286  MEMB      35              0.0000000000
      4159        35  PMPE      HN2           -16.7948150122       16.3692088452       22.2273841055  MEMB      35              0.0000000000
      4160        35  PMPE      HN3           -18.0961857640       16.7030922956       21.1710587028  MEMB      35              0.0000000000
      4161        35  PMPE      C12           -16.9728566840       18.3667986904       21.5971834052  MEMB      35              0.0000000000
      4162        35  PMPE      H12A          -16.1328027460       18.5217596595       22.3082036803  MEMB      35              0.0000000000
      4163        35  PMPE      H12B          -17.8988510856       18.7476473122       22.0724409972  MEMB      35              0.0000000000
      4164        35  PMPE      C11           -16.5758751062       19.0631216596       20.2870213749  MEMB      35              0.0000000000
      4165        35  PMPE      H11A          -15.6630779443       18.5431213059       19.8909325673  MEMB      35              0.0000000000
      4166        35  PMPE      H11B          -16.3358569896       20.0935344913       20.5931347728  MEMB      35              0.0000000000
      4167        35  PMPE      P             -17.2648174682       19.0299922301       17.7472700923  MEMB      35              0.0000000000
      4168        35  PMPE      O13           -18.5319427323       18.9975165440       17.0065875374  MEMB      35              0.0000000000
      4169        35  PMPE      O14           -16.3595696276       17.8660449367       17.6224216998  MEMB      35              0.0000000000
      4170        35  PMPE      O11           -16.4854395407       20.3593611253       17.4141573312  MEMB      35              0.0000000000
      4171        35  PMPE      O12           -17.6035796957       19.1707971068       19.3170483856  MEMB      35              0.0000000000
      4172        35  PMPE      C1            -16.6758036548       21.6037638879       18.0381818936  MEMB      35              0.0000000000
      4173        35  PMPE      HA            -15.7133277787       21.8692502472       18.4860576015  MEMB      35              0.0000000000
      4174        35  PMPE      HB            -17.3370964706       21.4994853527       18.9242558760  MEMB      35              0.0000000000
      4175        35  PMPE      C2            -17.2864894089       22.6570381818       17.0397624676  MEMB      35              0.0000000000
      4176        35  PMPE      HS            -17.5466954062       23.5708295761       17.6006234334  MEMB      35              0.0000000000
      4177        35  PMPE      O21           -18.4347844603       22.0519212322       16.4800771644  MEMB      35              0.0000000000
      4178        35  PMPE      C21           -19.1042075554       22.9303508198       15.7979416142  MEMB      35              0.0000000000
      4179        35  PMPE      O22           -19.0183395050       24.1375486021       15.9788978084  MEMB      35              0.0000000000
      4180        35  PMPE      C22           -20.0136841280       22.2408772167       14.8185341584  MEMB      35              0.0000000000
      4181        35  PMPE      H2R           -20.9934929891       22.1382029574       15.3292650414  MEMB      35              0.0000000000
      4182        35  PMPE      H2S           -19.5852415120       21.2486220937       14.5758386968  MEMB      35              0.0000000000
      4183        35  PMPE      C3            -16.4648564127       23.2476749674       15.8624831429  MEMB      35              0.0000000000
      4184        35  PMPE      HX            -15.7956576449       23.9995781814       16.2222802565  MEMB      35              0.0000000000
      4185        35  PMPE      HY            -16.8560690682       24.1163071186       15.3163000514  MEMB      35              0.0000000000
      4186        35  PMPE      O31           -16.0683903737       22.2461863916       14.9271729975  MEMB      35              0.0000000000
      4187        35  PMPE      C31           -14.9398645950       21.5944966408       14.8627187782  MEMB      35              0.0000000000
      4188        35  PMPE      O32           -13.8962991578       21.7400033384       15.4004694853  MEMB      35              0.0000000000
      4189        35  PMPE      C32           -14.9048140284       20.7431717200       13.7211665407  MEMB      35              0.0000000000
      4190        35  PMPE      H2X           -13.9436094849       20.4294509233       13.4288869285  MEMB      35              0.0000000000
      4191        35  PMPE      H2Y           -15.0484273018       21.3669064237       12.8487384036  MEMB      35              0.0000000000
      4192        35  PMPE      C23           -20.1487399617       23.0513810374       13.5285529006  MEMB      35              0.0000000000
      4193        35  PMPE      H3R           -20.8091738311       23.8812220093       13.6841493866  MEMB      35              0.0000000000
      4194        35  PMPE      H3S           -20.7036300369       22.5030584281       12.7551560588  MEMB      35              0.0000000000
      4195        35  PMPE      C24           -18.8204490717       23.4924614155       12.9594713547  MEMB      35              0.0000000000
      4196        35  PMPE      H4R           -18.2233553857       22.5563134056       12.8369613649  MEMB      35              0.0000000000
      4197        35  PMPE      H4S           -18.2484206734       24.2127143742       13.5922268714  MEMB      35              0.0000000000
      4198        35  PMPE      C25           -18.9675259811       24.0892033302       11.5873109800  MEMB      35              0.0000000000
      4199        35  PMPE      H5R           -17.9213486911       24.3777812885       11.4466567887  MEMB      35              0.0000000000
      4200        35  PMPE      H5S           -19.4466006888       25.0659753258       11.4894087093  MEMB      35              0.0000000000
      4201        35  PMPE      C26           -19.6548050875       23.0967021252       10.6253139028  MEMB      35              0.0000000000
      4202        35  PMPE      H6R           -20.7322854122       23.3744113439       10.6101333980  MEMB      35              0.0000000000
      4203        35  PMPE      H6S           -19.4830249732       22.0418255438       10.8930699104  MEMB      35              0.0000000000
      4204        35  PMPE      C27           -19.2133659694       23.1646863964        9.2116891509  MEMB      35              0.0000000000
      4205        35  PMPE      H7R           -18.1351495363       22.8547831823        9.1086681560  MEMB      35              0.0000000000
      4206        35  PMPE      H7S           -19.3859546654       24.2615625487        9.0733697199  MEMB      35              0.0000000000
      4207        35  PMPE      C28           -19.8364921730       22.3782525359        8.1088150953  MEMB      35              0.0000000000
      4208        35  PMPE      H8R           -20.0562112484       21.3775625585        8.4437912134  MEMB      35              0.0000000000
      4209        35  PMPE      H8S           -19.0463344351       22.3091558373        7.3236373591  MEMB      35              0.0000000000
      4210        35  PMPE      C29           -20.9857162381       23.1041085913        7.4683923418  MEMB      35              0.0000000000
      4211        35  PMPE      H9R           -20.7689338027       24.1657176321        7.3469637142  MEMB      35              0.0000000000
      4212        35  PMPE      C217          -22.3706255283       22.5154500286        7.8552879828  MEMB      35              0.0000000000
      4213        35  PMPE      H17R          -23.3518075823       22.9451955699        7.5517859148  MEMB      35              0.0000000000
      4214        35  PMPE      H17S          -22.0448860438       22.3678668197        8.8626185941  MEMB      35              0.0000000000
      4215        35  PMPE      C210          -21.8589306509       22.4007210626        6.5607366179  MEMB      35              0.0000000000
      4216        35  PMPE      H10R          -22.8077145864       22.6259385822        5.9312755524  MEMB      35              0.0000000000
      4217        35  PMPE      C211          -21.8001489784       21.1596810699        6.7695878647  MEMB      35              0.0000000000
      4218        35  PMPE      H11R          -22.9278308945       21.0043476413        6.6274698347  MEMB      35              0.0000000000
      4219        35  PMPE      H11S          -21.6702928214       20.6626122987        7.7575035422  MEMB      35              0.0000000000
      4220        35  PMPE      C212          -20.7152938545       20.8526697046        5.7543533149  MEMB      35              0.0000000000
      4221        35  PMPE      H12R          -20.8223801111       19.9264274028        5.1910168049  MEMB      35              0.0000000000
      4222        35  PMPE      H12S          -19.7623274552       20.7464167680        6.2709944491  MEMB      35              0.0000000000
      4223        35  PMPE      C213          -20.7373976252       21.6379597694        4.4735109131  MEMB      35              0.0000000000
      4224        35  PMPE      H13R          -20.5856187076       22.6752063574        4.6616589427  MEMB      35              0.0000000000
      4225        35  PMPE      H13S          -21.7962748880       21.5804461341        4.1317529463  MEMB      35              0.0000000000
      4226        35  PMPE      C214          -19.5527292397       21.0739009615        3.6633429348  MEMB      35              0.0000000000
      4227        35  PMPE      H14R          -19.8962925333       20.0419682663        3.4841371324  MEMB      35              0.0000000000
      4228        35  PMPE      H14S          -18.5843643967       21.1797477368        4.1970757338  MEMB      35              0.0000000000
      4229        35  PMPE      C215          -19.1643461106       21.4791558198        2.2770792142  MEMB      35              0.0000000000
      4230        35  PMPE      H15R          -18.1946502893       21.3469887188        1.7857590018  MEMB      35              0.0000000000
      4231        35  PMPE      H15S          -19.2149804841       22.5432432001        2.0843935934  MEMB      35              0.0000000000
      4232        35  PMPE      C216          -20.1685177276       20.8527364206        1.5299310871  MEMB      35              0.0000000000
      4233        35  PMPE      H16R          -19.8889511471       21.3033059447        0.5642527869  MEMB      35              0.0000000000
      4234        35  PMPE      H16S          -20.3043464045       19.9522462459        1.0262443195  MEMB      35              0.0000000000
      4235        35  PMPE      H16T          -21.1966289894       20.9611967179        1.9343890208  MEMB      35              0.0000000000
      4236        35  PMPE      C33           -15.5372373033       19.4870735751       14.2075943787  MEMB      35              0.0000000000
      4237        35  PMPE      H3X           -16.5927043644       19.8097385582       14.2387055811  MEMB      35              0.0000000000
      4238        35  PMPE      H3Y           -15.2255245397       19.2184409534       15.2655881202  MEMB      35              0.0000000000
      4239        35  PMPE      C34           -15.2710967462       18.2966721937       13.2900908930  MEMB      35              0.0000000000
      4240        35  PMPE      H4X           -15.9345852384       17.5334018135       13.7389190667  MEMB      35              0.0000000000
      4241        35  PMPE      H4Y           -14.2355725507       17.8869270739       13.3645424078  MEMB      35              0.0000000000
      4242        35  PMPE      C35           -15.6879306822       18.5253271180       11.8219498988  MEMB      35              0.0000000000
      4243        35  PMPE      H5X           -15.8146121820       17.5116385596       11.3932912571  MEMB      35              0.0000000000
      4244        35  PMPE      H5Y           -14.8591974085       18.9910602082       11.2481157362  MEMB      35              0.0000000000
      4245        35  PMPE      C36           -17.0182924255       19.3292233865       11.6884700109  MEMB      35              0.0000000000
      4246        35  PMPE      H6X           -16.8882544564       20.3949913425       11.9275966202  MEMB      35              0.0000000000
      4247        35  PMPE      H6Y           -17.7418289013       18.8632697951       12.4042328936  MEMB      35              0.0000000000
      4248        35  PMPE      C37           -17.6389526324       19.3870849295       10.2879142417  MEMB      35              0.0000000000
      4249        35  PMPE      H7X           -18.7379546437       19.4564077938       10.1815329648  MEMB      35              0.0000000000
      4250        35  PMPE      H7Y           -17.4433244262       18.4124958255       10.1088603354  MEMB      35              0.0000000000
      4251        35  PMPE      C38           -16.7725877649       19.8825302656        9.1378074976  MEMB      35              0.0000000000
      4252        35  PMPE      H8X           -15.7200763980       19.5183642768        9.2258971942  MEMB      35              0.0000000000
      4253        35  PMPE      H8Y           -16.8841563500       20.9615565489        9.2737409497  MEMB      35              0.0000000000
      4254        35  PMPE      C39           -17.1666523117       19.5538633740        7.7044764287  MEMB      35              0.0000000000
      4255        35  PMPE      H9X           -16.9835328694       20.4546309881        7.0983778989  MEMB      35              0.0000000000
      4256        35  PMPE      H9Y           -18.2694343715       19.3716247062        7.6253718888  MEMB      35              0.0000000000
      4257        35  PMPE      C310          -16.2675152837       18.4533327110        7.1003261451  MEMB      35              0.0000000000
      4258        35  PMPE      H10X          -16.2012584339       17.6143864339        7.8161001495  MEMB      35              0.0000000000
      4259        35  PMPE      H10Y          -15.2254113021       18.6940804648        6.8854116026  MEMB      35              0.0000000000
      4260        35  PMPE      C311          -16.8676876405       17.9431535585        5.8396290159  MEMB      35              0.0000000000
      4261        35  PMPE      H11X          -17.9245032697       17.8695911869        6.1639578500  MEMB      35              0.0000000000
      4262        35  PMPE      H11Y          -16.4202837610       17.0034007613        5.4290428641  MEMB      35              0.0000000000
      4263        35  PMPE      C312          -17.2008320657       18.8755428191        4.7920437118  MEMB      35              0.0000000000
      4264        35  PMPE      H12X          -16.2619790956       19.3366636386        4.4664962530  MEMB      35              0.0000000000
      4265        35  PMPE      H12Y          -17.8126611219       19.6918580165        5.2223248891  MEMB      35              0.0000000000
      4266        35  PMPE      C313          -18.1386990010       18.1779041378        3.7768799231  MEMB      35              0.0000000000
      4267        35  PMPE      H13X          -18.3936120792       19.1086722128        3.3708052101  MEMB      35              0.0000000000
      4268        35  PMPE      H13Y          -19.0365875219       17.7084691443        4.1953104763  MEMB      35              0.0000000000
      4269        35  PMPE      C314          -17.6511300190       17.1462396372        2.7363965013  MEMB      35              0.0000000000
      4270        35  PMPE      H14X          -17.2641446654       16.6107093664        3.6006237812  MEMB      35              0.0000000000
      4271        35  PMPE      H14Y          -16.9080180486       17.0064347830        2.0054416841  MEMB      35              0.0000000000
      4272        35  PMPE      C315          -18.2424227426       16.5416764476        1.3275873703  MEMB      35              0.0000000000
      4273        35  PMPE      H15X          -19.3108797910       16.6612818016        1.4557571622  MEMB      35              0.0000000000
      4274        35  PMPE      H15Y          -18.0331402696       15.5007322554        1.0364970128  MEMB      35              0.0000000000
      4275        35  PMPE      C316          -17.7053306956       16.2103593459        0.1382483787  MEMB      35              0.0000000000
      4276        35  PMPE      H16X          -17.4588521109       17.2425921213       -0.0247121104  MEMB      35              0.0000000000
      4277        35  PMPE      H16Y          -18.3684846728       15.5844362724       -0.6494189888  MEMB      35              0.0000000000
      4278        35  PMPE      H16Z          -16.8996608926       16.9127367978       -0.1144856730  MEMB      35              0.0000000000
      4279        36  POPE      N             -12.9955447987      -24.4134637592       21.5446484852  MEMB      36              0.0000000000
      4280        36  POPE      HN1           -13.2581173723      -25.2854481438       21.0429623601  MEMB      36              0.0000000000
      4281        36  POPE      HN2           -12.1361554938      -24.0663152864       21.0853280119  MEMB      36              0.0000000000
      4282        36  POPE      HN3           -12.8006598626      -24.6209861442       22.5438680060  MEMB      36              0.0000000000
      4283        36  POPE      C12           -14.0697322281      -23.3649352014       21.3665643294  MEMB      36              0.0000000000
      4284        36  POPE      H12A          -13.6228112390      -22.3651090989       21.5531267473  MEMB      36              0.0000000000
      4285        36  POPE      H12B          -14.8373266781      -23.5556575249       22.1442892870  MEMB      36              0.0000000000
      4286        36  POPE      C11           -14.6401479164      -23.4223809442       19.9320283569  MEMB      36              0.0000000000
      4287        36  POPE      H11A          -15.4617735519      -22.6692672129       19.8354907152  MEMB      36              0.0000000000
      4288        36  POPE      H11B          -15.0896343715      -24.4284239943       19.7716893832  MEMB      36              0.0000000000
      4289        36  POPE      P             -13.5358680110      -22.1266308443       17.8291677130  MEMB      36              0.0000000000
      4290        36  POPE      O13           -12.0907132214      -21.9744865063       17.5362961171  MEMB      36              0.0000000000
      4291        36  POPE      O14           -14.2432842890      -20.9408805853       18.3223160076  MEMB      36              0.0000000000
      4292        36  POPE      O11           -14.2833691843      -22.7321997702       16.5540739223  MEMB      36              0.0000000000
      4293        36  POPE      O12           -13.6083036673      -23.2546763482       18.9604537742  MEMB      36              0.0000000000
      4294        36  POPE      C1            -15.1835265085      -23.8465643844       16.6505521544  MEMB      36              0.0000000000
      4295        36  POPE      HA            -16.0357611872      -23.5791707360       17.3124417354  MEMB      36              0.0000000000
      4296        36  POPE      HB            -14.6409894945      -24.7180046940       17.0649294394  MEMB      36              0.0000000000
      4297        36  POPE      C2            -15.6079708116      -24.4854937342       15.2827286428  MEMB      36              0.0000000000
      4298        36  POPE      HS            -16.1531697041      -25.4482172883       15.4334629579  MEMB      36              0.0000000000
      4299        36  POPE      O21           -14.5140873092      -24.3997167311       14.3837803289  MEMB      36              0.0000000000
      4300        36  POPE      C21           -14.3280456133      -25.4165891497       13.6664100791  MEMB      36              0.0000000000
      4301        36  POPE      O22           -14.8141770600      -26.5256374088       13.8245680804  MEMB      36              0.0000000000
      4302        36  POPE      C22           -13.4586422164      -24.9939777006       12.5393603848  MEMB      36              0.0000000000
      4303        36  POPE      H2R           -13.7021754106      -24.0103717092       12.0888768152  MEMB      36              0.0000000000
      4304        36  POPE      H2S           -13.4224212375      -25.8062647619       11.7944740578  MEMB      36              0.0000000000
      4305        36  POPE      C3            -16.6882357405      -23.7864191816       14.6110769502  MEMB      36              0.0000000000
      4306        36  POPE      HX            -16.0339256476      -22.9277615917       14.2944542090  MEMB      36              0.0000000000
      4307        36  POPE      HY            -17.4215069493      -23.6086015951       15.4385642203  MEMB      36              0.0000000000
      4308        36  POPE      O31           -17.4006526977      -24.2881809538       13.5006524438  MEMB      36              0.0000000000
      4309        36  POPE      C31           -17.0065733498      -23.8445963265       12.3357893589  MEMB      36              0.0000000000
      4310        36  POPE      O32           -15.9565012594      -23.2804504414       12.0612520695  MEMB      36              0.0000000000
      4311        36  POPE      C32           -18.2457929248      -23.9787334411       11.4701490374  MEMB      36              0.0000000000
      4312        36  POPE      H2X           -19.0353372699      -23.2231439629       11.6493457761  MEMB      36              0.0000000000
      4313        36  POPE      H2Y           -18.6339555874      -24.9609194969       11.7683158352  MEMB      36              0.0000000000
      4314        36  POPE      C23           -12.0780989463      -24.7964119181       12.9673520157  MEMB      36              0.0000000000
      4315        36  POPE      H3R           -11.7197008513      -25.7589795115       13.4029432977  MEMB      36              0.0000000000
      4316        36  POPE      H3S           -11.9025263060      -23.9981880178       13.7344069375  MEMB      36              0.0000000000
      4317        36  POPE      C24           -11.3673019840      -24.5686434443       11.6519198323  MEMB      36              0.0000000000
      4318        36  POPE      H4R           -10.9032200030      -25.4874455463       11.2023299716  MEMB      36              0.0000000000
      4319        36  POPE      H4S           -10.6928533310      -23.7936595389       12.0309928612  MEMB      36              0.0000000000
      4320        36  POPE      C25           -11.5782264637      -23.6084475063       10.5569010418  MEMB      36              0.0000000000
      4321        36  POPE      H5R           -11.7080980534      -22.5862586921       10.9775337775  MEMB      36              0.0000000000
      4322        36  POPE      H5S           -12.4033028228      -24.1949730723       10.1191167019  MEMB      36              0.0000000000
      4323        36  POPE      C26           -10.3910357643      -23.6312298533        9.6219751803  MEMB      36              0.0000000000
      4324        36  POPE      H6R           -10.5581099883      -24.5978656631        9.0713741167  MEMB      36              0.0000000000
      4325        36  POPE      H6S            -9.3674716999      -23.5468167249       10.0746034449  MEMB      36              0.0000000000
      4326        36  POPE      C27           -10.2629964624      -22.5417688008        8.6225734050  MEMB      36              0.0000000000
      4327        36  POPE      H7R            -9.2944147095      -22.7316822525        8.0888640451  MEMB      36              0.0000000000
      4328        36  POPE      H7S           -10.1813389123      -21.5894613374        9.1937068292  MEMB      36              0.0000000000
      4329        36  POPE      C28           -11.4578413023      -22.6312188139        7.7058298180  MEMB      36              0.0000000000
      4330        36  POPE      H8R           -12.3476135035      -22.3034390482        8.2888901137  MEMB      36              0.0000000000
      4331        36  POPE      H8S           -11.6041342985      -23.6942951950        7.3981244761  MEMB      36              0.0000000000
      4332        36  POPE      C29           -11.1236239681      -21.7504757520        6.5501593553  MEMB      36              0.0000000000
      4333        36  POPE      H91           -10.6659607623      -20.7932556521        6.8353844770  MEMB      36              0.0000000000
      4334        36  POPE      C210          -11.3275251699      -22.0098936662        5.2555105779  MEMB      36              0.0000000000
      4335        36  POPE      H101          -11.0064710529      -21.2383188953        4.5479328123  MEMB      36              0.0000000000
      4336        36  POPE      C211          -11.9528509358      -23.2374922113        4.6355444865  MEMB      36              0.0000000000
      4337        36  POPE      H11R          -12.6735370823      -23.7355606502        5.3209023848  MEMB      36              0.0000000000
      4338        36  POPE      H11S          -11.2096639397      -24.0152056528        4.3518533970  MEMB      36              0.0000000000
      4339        36  POPE      C212          -12.6485742916      -22.8228840414        3.3404617405  MEMB      36              0.0000000000
      4340        36  POPE      H12R          -11.8983215973      -22.4595050816        2.6093947108  MEMB      36              0.0000000000
      4341        36  POPE      H12S          -13.3563978863      -21.9751387058        3.4567941505  MEMB      36              0.0000000000
      4342        36  POPE      C213          -13.3764794041      -23.9833516127        2.6923066989  MEMB      36              0.0000000000
      4343        36  POPE      H13R          -14.1270780016      -24.3930724804        3.4397214511  MEMB      36              0.0000000000
      4344        36  POPE      H13S          -12.7239886781      -24.8002503118        2.3884772052  MEMB      36              0.0000000000
      4345        36  POPE      C214          -14.0291348923      -23.4254588280        1.4533577902  MEMB      36              0.0000000000
      4346        36  POPE      H14R          -14.3342957354      -24.1714441925        0.6635043106  MEMB      36              0.0000000000
      4347        36  POPE      H14S          -13.5744749681      -22.5374642470        0.9781655013  MEMB      36              0.0000000000
      4348        36  POPE      C215          -15.2614677027      -23.0161201108        2.1620289468  MEMB      36              0.0000000000
      4349        36  POPE      H15R          -15.3110283647      -22.3903525730        3.0555208256  MEMB      36              0.0000000000
      4350        36  POPE      H15S          -15.5056306090      -24.0821820674        2.2741357832  MEMB      36              0.0000000000
      4351        36  POPE      C216          -16.4130074340      -22.9104593053        1.4002283252  MEMB      36              0.0000000000
      4352        36  POPE      H16R          -16.3749933690      -23.6834745751        0.5865858301  MEMB      36              0.0000000000
      4353        36  POPE      H16S          -15.7466231010      -22.4067949352        0.6142412567  MEMB      36              0.0000000000
      4354        36  POPE      C217          -18.1233462175      -22.2901863537        2.0097503794  MEMB      36              0.0000000000
      4355        36  POPE      H17R          -18.9667476911      -22.9395791531        1.6847559953  MEMB      36              0.0000000000
      4356        36  POPE      H17S          -18.6619195022      -21.4249612280        1.4809423750  MEMB      36              0.0000000000
      4357        36  POPE      C218          -18.6143018402      -21.1785948139        2.8397256160  MEMB      36              0.0000000000
      4358        36  POPE      H18R          -19.7547638153      -21.2703224632        2.9537232556  MEMB      36              0.0000000000
      4359        36  POPE      H18S          -18.2256881811      -20.1899674247        2.9443895271  MEMB      36              0.0000000000
      4360        36  POPE      H18T          -17.8760609288      -21.5344396972        3.5252768758  MEMB      36              0.0000000000
      4361        36  POPE      C33           -17.9273010000      -23.8780513479       10.0085744645  MEMB      36              0.0000000000
      4362        36  POPE      H3X           -17.0573339556      -23.3095625186        9.7353282178  MEMB      36              0.0000000000
      4363        36  POPE      H3Y           -18.8455517667      -23.6854429607        9.3994314459  MEMB      36              0.0000000000
      4364        36  POPE      C34           -17.3667197355      -25.1178643152        9.5913029540  MEMB      36              0.0000000000
      4365        36  POPE      H4X           -18.3568004972      -25.5983185526        9.7897061949  MEMB      36              0.0000000000
      4366        36  POPE      H4Y           -16.5128156269      -25.4877799077       10.1743474666  MEMB      36              0.0000000000
      4367        36  POPE      C35           -16.9146761788      -25.1681555158        8.2057103251  MEMB      36              0.0000000000
      4368        36  POPE      H5X           -17.7189897292      -24.8210998952        7.6022395058  MEMB      36              0.0000000000
      4369        36  POPE      H5Y           -16.8270716558      -26.1514859542        7.8394746145  MEMB      36              0.0000000000
      4370        36  POPE      C36           -15.5040622872      -25.2962285032        7.7333893269  MEMB      36              0.0000000000
      4371        36  POPE      H6X           -15.4881695411      -25.5940659913        6.6609181117  MEMB      36              0.0000000000
      4372        36  POPE      H6Y           -14.9207154136      -25.9781777153        8.3814629510  MEMB      36              0.0000000000
      4373        36  POPE      C37           -15.0074721861      -23.9682593771        7.6068255009  MEMB      36              0.0000000000
      4374        36  POPE      H7X           -13.9728710935      -23.8723605543        7.4033304317  MEMB      36              0.0000000000
      4375        36  POPE      H7Y           -15.2569046514      -23.5984093404        8.6578595593  MEMB      36              0.0000000000
      4376        36  POPE      C38           -15.6007210887      -23.3115892504        6.3102961559  MEMB      36              0.0000000000
      4377        36  POPE      H8X           -16.4979981447      -23.4195543887        6.8932526440  MEMB      36              0.0000000000
      4378        36  POPE      H8Y           -16.2239757809      -23.7254382638        5.5421017200  MEMB      36              0.0000000000
      4379        36  POPE      C39           -15.0642546029      -21.8698571307        5.9686937294  MEMB      36              0.0000000000
      4380        36  POPE      H9X           -14.0443534546      -21.8803299222        5.6372886460  MEMB      36              0.0000000000
      4381        36  POPE      H9Y           -14.6367534913      -21.3306843179        6.8285989959  MEMB      36              0.0000000000
      4382        36  POPE      C310          -15.8969229817      -20.7630241993        5.3160200410  MEMB      36              0.0000000000
      4383        36  POPE      H10X          -16.8285746398      -20.3032918369        5.8177864647  MEMB      36              0.0000000000
      4384        36  POPE      H10Y          -16.3682681378      -21.0018652902        4.3729398915  MEMB      36              0.0000000000
      4385        36  POPE      C311          -14.8989104878      -19.7182141475        5.1611768553  MEMB      36              0.0000000000
      4386        36  POPE      H11X          -14.5413275232      -18.9346875251        5.8377462633  MEMB      36              0.0000000000
      4387        36  POPE      H11Y          -15.6996309306      -19.2462929895        5.3146680598  MEMB      36              0.0000000000
      4388        36  POPE      C312          -14.6877068718      -19.1235903516        3.8822213933  MEMB      36              0.0000000000
      4389        36  POPE      H12X          -14.5656379092      -18.0315127495        4.0412100761  MEMB      36              0.0000000000
      4390        36  POPE      H12Y          -15.3140961520      -19.2930753022        2.9774895467  MEMB      36              0.0000000000
      4391        36  POPE      C313          -13.3373980866      -19.1709793030        4.0114148313  MEMB      36              0.0000000000
      4392        36  POPE      H13X          -13.2093319908      -20.2567271449        4.1832898260  MEMB      36              0.0000000000
      4393        36  POPE      H13Y          -12.9817750676      -18.5273348685        4.8882000371  MEMB      36              0.0000000000
      4394        36  POPE      C314          -13.0890636057      -18.6859107163        2.7110762490  MEMB      36              0.0000000000
      4395        36  POPE      H14X          -13.1899472630      -17.5842308610        2.5128469242  MEMB      36              0.0000000000
      4396        36  POPE      H14Y          -13.6718803738      -19.2578209044        1.9268252913  MEMB      36              0.0000000000
      4397        36  POPE      C315          -11.7626081719      -19.0413008171        2.8200826365  MEMB      36              0.0000000000
      4398        36  POPE      H15X          -11.5048563806      -20.1003673802        3.0061574532  MEMB      36              0.0000000000
      4399        36  POPE      H15Y          -11.2296729543      -18.3192272180        3.5146450857  MEMB      36              0.0000000000
      4400        36  POPE      C316          -11.6365462124      -18.8815472038        1.4465702914  MEMB      36              0.0000000000
      4401        36  POPE      H16X          -10.6131922205      -18.7772152502        1.7261361381  MEMB      36              0.0000000000
      4402        36  POPE      H16Y          -11.9588374804      -17.9046911647        0.9728746952  MEMB      36              0.0000000000
      4403        36  POPE      H16Z          -11.5151954721      -19.6836573980        0.7192523640  MEMB      36              0.0000000000
      4404        37  OYPE      N              -4.0234801030      -28.0461713988       16.9904569209  MEMB      37              0.0000000000
      4405        37  OYPE      HN1            -5.0305064437      -28.0654050416       16.6887783218  MEMB      37              0.0000000000
      4406        37  OYPE      HN2            -3.4068694048      -27.8456425463       16.1735215079  MEMB      37              0.0000000000
      4407        37  OYPE      HN3            -3.7567313228      -28.9682017644       17.3770209174  MEMB      37              0.0000000000
      4408        37  OYPE      C12            -3.8248633904      -26.9507314961       18.0041584241  MEMB      37              0.0000000000
      4409        37  OYPE      H12A           -4.1411092293      -25.9902813418       17.5366779952  MEMB      37              0.0000000000
      4410        37  OYPE      H12B           -2.7581830477      -26.9303513027       18.2985298801  MEMB      37              0.0000000000
      4411        37  OYPE      C11            -4.6585046222      -27.1085459130       19.2631899759  MEMB      37              0.0000000000
      4412        37  OYPE      H11A           -4.3741994010      -26.2561772662       19.8796755937  MEMB      37              0.0000000000
      4413        37  OYPE      H11B           -4.4633612485      -27.8811673585       19.9780999268  MEMB      37              0.0000000000
      4414        37  OYPE      P              -6.8186230177      -25.8520831355       19.6185714232  MEMB      37              0.0000000000
      4415        37  OYPE      O13            -6.2890884012      -24.6086292893       19.0484313270  MEMB      37              0.0000000000
      4416        37  OYPE      O14            -6.9370070885      -26.0503158381       21.0637615634  MEMB      37              0.0000000000
      4417        37  OYPE      O11            -8.2291279120      -25.9886608641       19.0974893751  MEMB      37              0.0000000000
      4418        37  OYPE      O12            -6.0223840510      -27.1226591012       18.9642735896  MEMB      37              0.0000000000
      4419        37  OYPE      C1             -8.4045350470      -27.1617091191       18.4178715031  MEMB      37              0.0000000000
      4420        37  OYPE      HA             -9.4754313478      -27.2212590432       18.6068906795  MEMB      37              0.0000000000
      4421        37  OYPE      HB             -7.9711519868      -28.0779957075       18.9200507333  MEMB      37              0.0000000000
      4422        37  OYPE      C2             -7.9411542750      -26.8721885366       16.9591052529  MEMB      37              0.0000000000
      4423        37  OYPE      HS             -6.8705700186      -26.6485731141       16.8282424402  MEMB      37              0.0000000000
      4424        37  OYPE      O21            -8.9563356525      -26.0958382538       16.4074412785  MEMB      37              0.0000000000
      4425        37  OYPE      C21            -8.5402081607      -25.5590333993       15.3466508832  MEMB      37              0.0000000000
      4426        37  OYPE      O22            -7.4307935585      -25.6568955695       14.8320449780  MEMB      37              0.0000000000
      4427        37  OYPE      C22            -9.6599219018      -24.7324931632       14.9251970649  MEMB      37              0.0000000000
      4428        37  OYPE      H2R           -10.0242894918      -24.0532146867       15.7064618707  MEMB      37              0.0000000000
      4429        37  OYPE      H2S           -10.5530455713      -25.3627967095       14.8049547812  MEMB      37              0.0000000000
      4430        37  OYPE      C3             -7.7824515505      -28.0260385154       16.1009228985  MEMB      37              0.0000000000
      4431        37  OYPE      HX             -8.6775678413      -28.1897384210       15.5195335354  MEMB      37              0.0000000000
      4432        37  OYPE      HY             -7.6292001827      -28.6730670177       17.0064042990  MEMB      37              0.0000000000
      4433        37  OYPE      O31            -7.1030821800      -28.1647752384       14.8795187334  MEMB      37              0.0000000000
      4434        37  OYPE      C31            -6.3944127774      -29.1981686082       14.6406440170  MEMB      37              0.0000000000
      4435        37  OYPE      O32            -5.7658552615      -29.8140377959       15.5047261195  MEMB      37              0.0000000000
      4436        37  OYPE      C32            -6.3724836004      -29.4588107896       13.1551815263  MEMB      37              0.0000000000
      4437        37  OYPE      H2X            -6.6891146891      -30.5000668661       12.9256061671  MEMB      37              0.0000000000
      4438        37  OYPE      H2Y            -7.0673290351      -28.7604486689       12.6373478270  MEMB      37              0.0000000000
      4439        37  OYPE      C23            -9.0845337534      -24.0735790503       13.7048918188  MEMB      37              0.0000000000
      4440        37  OYPE      H3R            -8.2133577751      -23.4238484008       13.7905071240  MEMB      37              0.0000000000
      4441        37  OYPE      H3S            -9.8932014265      -23.3023712936       13.5868899495  MEMB      37              0.0000000000
      4442        37  OYPE      C24            -8.9745078434      -25.0911368700       12.5279448126  MEMB      37              0.0000000000
      4443        37  OYPE      H4R            -8.9934734469      -24.4743112039       11.6192414286  MEMB      37              0.0000000000
      4444        37  OYPE      H4S            -9.8047700291      -25.8078988406       12.7459522372  MEMB      37              0.0000000000
      4445        37  OYPE      C25            -8.0686301794      -26.1463359378       11.9798660510  MEMB      37              0.0000000000
      4446        37  OYPE      H5R            -8.1108380280      -26.9163623608       12.7719776244  MEMB      37              0.0000000000
      4447        37  OYPE      H5S            -7.1363004866      -25.5753985955       11.8348872478  MEMB      37              0.0000000000
      4448        37  OYPE      C26            -8.5141890127      -26.7924229035       10.6156637628  MEMB      37              0.0000000000
      4449        37  OYPE      H6R            -9.5471091283      -27.2227764046       10.5542682576  MEMB      37              0.0000000000
      4450        37  OYPE      H6S            -7.8259883774      -27.6430111118       10.4949486599  MEMB      37              0.0000000000
      4451        37  OYPE      C27            -8.1475364724      -25.8871470981        9.4331509634  MEMB      37              0.0000000000
      4452        37  OYPE      H7R            -7.3406805135      -25.2102654288        9.7274685258  MEMB      37              0.0000000000
      4453        37  OYPE      H7S            -8.8978949364      -25.1972370613        9.3110026916  MEMB      37              0.0000000000
      4454        37  OYPE      C28            -8.0282105189      -26.4108392799        7.9992646043  MEMB      37              0.0000000000
      4455        37  OYPE      H8R            -7.4043204216      -27.3110117931        8.1193866595  MEMB      37              0.0000000000
      4456        37  OYPE      H8S            -7.4147264910      -25.6755724795        7.4280506899  MEMB      37              0.0000000000
      4457        37  OYPE      C29            -9.3249977584      -26.5988929918        7.2258050872  MEMB      37              0.0000000000
      4458        37  OYPE      H9R           -10.0229438049      -25.7469228546        7.1726268764  MEMB      37              0.0000000000
      4459        37  OYPE      C210           -9.6837195277      -27.7281292251        6.6194630520  MEMB      37              0.0000000000
      4460        37  OYPE      H10R          -10.6320345014      -27.7628254901        6.0472276421  MEMB      37              0.0000000000
      4461        37  OYPE      C211           -8.8201142233      -28.9620596580        6.6466654496  MEMB      37              0.0000000000
      4462        37  OYPE      H11R           -9.4699073095      -29.8041337625        6.9335527346  MEMB      37              0.0000000000
      4463        37  OYPE      H11S           -8.0330762667      -28.9453293315        7.4037306700  MEMB      37              0.0000000000
      4464        37  OYPE      C212           -7.9174681609      -29.2256639543        5.4488789326  MEMB      37              0.0000000000
      4465        37  OYPE      H12R           -7.2156381178      -30.0913978941        5.5623678196  MEMB      37              0.0000000000
      4466        37  OYPE      H12S           -7.5683792193      -28.3415775771        4.8859220337  MEMB      37              0.0000000000
      4467        37  OYPE      C213           -8.7622105177      -29.7413006675        4.4695056793  MEMB      37              0.0000000000
      4468        37  OYPE      H13R           -9.6237800971      -28.9959197148        4.4192638497  MEMB      37              0.0000000000
      4469        37  OYPE      H13S           -8.9584048482      -30.7030521368        4.9090420205  MEMB      37              0.0000000000
      4470        37  OYPE      C214           -8.2017572209      -29.9900774913        3.1137726190  MEMB      37              0.0000000000
      4471        37  OYPE      H14R           -7.6404288888      -30.8170215875        2.6540487026  MEMB      37              0.0000000000
      4472        37  OYPE      H14S           -7.9748971952      -28.9478874499        2.7644962649  MEMB      37              0.0000000000
      4473        37  OYPE      C215           -9.3756004039      -30.5220489582        2.4680085445  MEMB      37              0.0000000000
      4474        37  OYPE      H15R           -9.2273704576      -29.7914752461        1.6690806413  MEMB      37              0.0000000000
      4475        37  OYPE      H15S          -10.1449954392      -30.2655523243        3.2252788555  MEMB      37              0.0000000000
      4476        37  OYPE      C216           -9.6036617827      -31.8825228506        1.7688143840  MEMB      37              0.0000000000
      4477        37  OYPE      H16R           -8.9300592313      -31.9489327724        0.9185982108  MEMB      37              0.0000000000
      4478        37  OYPE      H16S          -10.6284289620      -32.0128703854        1.3233713863  MEMB      37              0.0000000000
      4479        37  OYPE      H16T           -9.6784556542      -32.7504803106        2.3973573853  MEMB      37              0.0000000000
      4480        37  OYPE      C33            -4.9226455406      -29.2291563425       12.7383869914  MEMB      37              0.0000000000
      4481        37  OYPE      H3X            -4.8912087642      -29.2614692076       11.6322420282  MEMB      37              0.0000000000
      4482        37  OYPE      H3Y            -4.3038318352      -30.0666252417       13.1402206540  MEMB      37              0.0000000000
      4483        37  OYPE      C34            -4.3548345534      -27.8800110731       13.2163097356  MEMB      37              0.0000000000
      4484        37  OYPE      H4X            -5.0196364014      -27.0257817332       12.9596103503  MEMB      37              0.0000000000
      4485        37  OYPE      H4Y            -4.3426895986      -27.8964499180       14.3235825169  MEMB      37              0.0000000000
      4486        37  OYPE      C35            -2.9394023071      -27.5889844549       12.6812856489  MEMB      37              0.0000000000
      4487        37  OYPE      H5X            -2.2425422901      -28.3520716012       13.1017715110  MEMB      37              0.0000000000
      4488        37  OYPE      H5Y            -2.6437240338      -26.5852840011       13.0631882940  MEMB      37              0.0000000000
      4489        37  OYPE      C36            -2.7669819237      -27.5291904965       11.1381047697  MEMB      37              0.0000000000
      4490        37  OYPE      H6X            -1.7759129291      -27.0599887034       10.9330397178  MEMB      37              0.0000000000
      4491        37  OYPE      H6Y            -2.7215194987      -28.5581542873       10.7220815186  MEMB      37              0.0000000000
      4492        37  OYPE      C37            -3.8399981378      -26.6981163595       10.4000082491  MEMB      37              0.0000000000
      4493        37  OYPE      H7X            -4.8388620588      -27.1726126290       10.4857187069  MEMB      37              0.0000000000
      4494        37  OYPE      H7Y            -3.9321582681      -25.7311631483       10.9490793211  MEMB      37              0.0000000000
      4495        37  OYPE      C38            -3.5426841101      -26.3798014801        8.9005987369  MEMB      37              0.0000000000
      4496        37  OYPE      H8X            -4.1839519670      -25.4976703630        8.6767477598  MEMB      37              0.0000000000
      4497        37  OYPE      H8Y            -2.4833325239      -26.0451777551        8.8148858262  MEMB      37              0.0000000000
      4498        37  OYPE      C39            -3.8045583498      -27.4804693720        7.8865181094  MEMB      37              0.0000000000
      4499        37  OYPE      H9X            -3.8975827086      -28.4792939076        8.3263867657  MEMB      37              0.0000000000
      4500        37  OYPE      C310           -4.0800905469      -27.3737975743        6.5670678586  MEMB      37              0.0000000000
      4501        37  OYPE      H10X           -4.1971351057      -28.2863822492        5.9556050541  MEMB      37              0.0000000000
      4502        37  OYPE      C311           -4.2016478026      -26.1241945381        5.7459584621  MEMB      37              0.0000000000
      4503        37  OYPE      H11X           -5.2435570950      -26.0784671523        5.3557779631  MEMB      37              0.0000000000
      4504        37  OYPE      H11Y           -4.0376838784      -25.2075617796        6.3472738258  MEMB      37              0.0000000000
      4505        37  OYPE      C312           -3.2911381255      -26.1322577599        4.5143576356  MEMB      37              0.0000000000
      4506        37  OYPE      H12X           -2.5346560549      -26.9479245087        4.5577125032  MEMB      37              0.0000000000
      4507        37  OYPE      H12Y           -2.7138663384      -25.1799119712        4.4686055371  MEMB      37              0.0000000000
      4508        37  OYPE      C313           -4.1070905250      -26.2962000402        3.2270504692  MEMB      37              0.0000000000
      4509        37  OYPE      H13X           -4.8942509214      -25.5222370349        3.0966781767  MEMB      37              0.0000000000
      4510        37  OYPE      H13Y           -3.4314397162      -26.0556060802        2.4313028621  MEMB      37              0.0000000000
      4511        37  OYPE      C314           -4.5844267695      -27.7332930231        2.9614332359  MEMB      37              0.0000000000
      4512        37  OYPE      H14X           -5.2019989205      -28.0728972235        3.8314277555  MEMB      37              0.0000000000
      4513        37  OYPE      H14Y           -3.7776856568      -28.4514557357        2.7360633286  MEMB      37              0.0000000000
      4514        37  OYPE      C315           -5.4845258346      -27.8584805919        1.7528611463  MEMB      37              0.0000000000
      4515        37  OYPE      H15X           -6.2514879067      -27.1275767705        2.1325786408  MEMB      37              0.0000000000
      4516        37  OYPE      H15Y           -6.0314237637      -28.8107089418        1.7577049175  MEMB      37              0.0000000000
      4517        37  OYPE      C316           -4.8489020460      -27.7077025447        0.2740492878  MEMB      37              0.0000000000
      4518        37  OYPE      H16X           -3.7952473855      -28.0036814744        0.2591065420  MEMB      37              0.0000000000
      4519        37  OYPE      H16Y           -4.6026156113      -26.6439052130        0.2853770789  MEMB      37              0.0000000000
      4520        37  OYPE      C317           -5.6562581618      -28.1977165957       -1.1032606643  MEMB      37              0.0000000000
      4521        37  OYPE      H17X           -6.6990525223      -28.5490908591       -0.9542214413  MEMB      37              0.0000000000
      4522        37  OYPE      H17Y           -5.4904960547      -29.2476155619       -1.2343728932  MEMB      37              0.0000000000
      4523        37  OYPE      C318           -5.9959276781      -27.2885214352       -2.3815998691  MEMB      37              0.0000000000
      4524        37  OYPE      H18X           -6.7873723242      -27.6456581344       -3.0732530411  MEMB      37              0.0000000000
      4525        37  OYPE      H18Y           -6.6226619245      -26.3832534161       -2.2412288426  MEMB      37              0.0000000000
      4526        37  OYPE      H18Z           -5.0754979637      -26.8768922284       -2.8197561155  MEMB      37              0.0000000000
      4527        38  PMPE      N               8.2326544714      -24.8882294838       20.2371193835  MEMB      38              0.0000000000
      4528        38  PMPE      HN1             8.0542804074      -24.0232069576       19.6916741696  MEMB      38              0.0000000000
      4529        38  PMPE      HN2             7.8046841511      -25.7117211734       19.7849904339  MEMB      38              0.0000000000
      4530        38  PMPE      HN3             7.8928049825      -24.8017531586       21.2278798672  MEMB      38              0.0000000000
      4531        38  PMPE      C12             9.7171391255      -25.0714867540       20.2140812492  MEMB      38              0.0000000000
      4532        38  PMPE      H12A           10.0499641910      -25.6004050127       21.1304021783  MEMB      38              0.0000000000
      4533        38  PMPE      H12B           10.1544913088      -24.0563163837       20.2000678781  MEMB      38              0.0000000000
      4534        38  PMPE      C11            10.1557113695      -25.8294477572       18.9623898712  MEMB      38              0.0000000000
      4535        38  PMPE      H11A            9.8330246596      -25.3121889910       18.0282862854  MEMB      38              0.0000000000
      4536        38  PMPE      H11B            9.7275933833      -26.8550267106       18.9433550572  MEMB      38              0.0000000000
      4537        38  PMPE      P              12.6456623493      -25.0504279546       18.4302910162  MEMB      38              0.0000000000
      4538        38  PMPE      O13            12.6805957073      -25.1881688090       16.9589116705  MEMB      38              0.0000000000
      4539        38  PMPE      O14            13.8924445635      -25.2687155270       19.2039024374  MEMB      38              0.0000000000
      4540        38  PMPE      O11            12.0975831098      -23.6225145775       18.8228096248  MEMB      38              0.0000000000
      4541        38  PMPE      O12            11.5513818826      -26.0067970535       19.0243757483  MEMB      38              0.0000000000
      4542        38  PMPE      C1             12.9566211194      -22.5074519327       18.4944377816  MEMB      38              0.0000000000
      4543        38  PMPE      HA             13.9697906857      -22.8048581273       18.1182786227  MEMB      38              0.0000000000
      4544        38  PMPE      HB             13.1516602470      -21.9274835540       19.4193689941  MEMB      38              0.0000000000
      4545        38  PMPE      C2             12.3426426296      -21.5985771180       17.3879759093  MEMB      38              0.0000000000
      4546        38  PMPE      HS             11.6335678230      -20.9024224579       17.8900203936  MEMB      38              0.0000000000
      4547        38  PMPE      O21            11.6880226737      -22.4088026878       16.3995488030  MEMB      38              0.0000000000
      4548        38  PMPE      C21            10.7053901649      -21.8331467222       15.7573128013  MEMB      38              0.0000000000
      4549        38  PMPE      O22            10.3585911864      -20.6687358322       15.8470718486  MEMB      38              0.0000000000
      4550        38  PMPE      C22            10.0049157541      -22.8889061015       14.8986093037  MEMB      38              0.0000000000
      4551        38  PMPE      H2R             9.1064569932      -23.2263039146       15.4532874207  MEMB      38              0.0000000000
      4552        38  PMPE      H2S            10.6747502680      -23.7603483964       14.7316677812  MEMB      38              0.0000000000
      4553        38  PMPE      C3             13.3979753704      -20.7269987171       16.7026910867  MEMB      38              0.0000000000
      4554        38  PMPE      HX             13.8100780749      -20.0295984636       17.4589915083  MEMB      38              0.0000000000
      4555        38  PMPE      HY             12.9245613457      -20.1072611198       15.9077695790  MEMB      38              0.0000000000
      4556        38  PMPE      O31            14.4650781501      -21.5100579932       16.1815243504  MEMB      38              0.0000000000
      4557        38  PMPE      C31            14.1617850824      -22.0312970359       15.0051826900  MEMB      38              0.0000000000
      4558        38  PMPE      O32            13.3001946609      -21.6938140323       14.2208129375  MEMB      38              0.0000000000
      4559        38  PMPE      C32            15.2029815679      -22.9983294177       14.7288774237  MEMB      38              0.0000000000
      4560        38  PMPE      H2X            15.6057773832      -23.6246274575       15.5288969737  MEMB      38              0.0000000000
      4561        38  PMPE      H2Y            15.9291273209      -22.2446779140       14.6687079381  MEMB      38              0.0000000000
      4562        38  PMPE      C23             9.5758400330      -22.3181427764       13.5368791093  MEMB      38              0.0000000000
      4563        38  PMPE      H3R            10.4817521269      -22.0152410059       12.9638215224  MEMB      38              0.0000000000
      4564        38  PMPE      H3S             8.9813484805      -21.3887151824       13.6998607073  MEMB      38              0.0000000000
      4565        38  PMPE      C24             8.7061389866      -23.3193881908       12.7617164520  MEMB      38              0.0000000000
      4566        38  PMPE      H4R             8.1470479293      -22.7421331802       11.9953421420  MEMB      38              0.0000000000
      4567        38  PMPE      H4S             7.9530831278      -23.7866299222       13.4351021009  MEMB      38              0.0000000000
      4568        38  PMPE      C25             9.4833583567      -24.4453833594       12.0703673112  MEMB      38              0.0000000000
      4569        38  PMPE      H5R             9.7735886481      -25.2165246275       12.8174532568  MEMB      38              0.0000000000
      4570        38  PMPE      H5S            10.4215093141      -24.0312158460       11.6380487862  MEMB      38              0.0000000000
      4571        38  PMPE      C26             8.6779063052      -25.1047677989       10.9506952237  MEMB      38              0.0000000000
      4572        38  PMPE      H6R             7.6518350458      -25.3691386412       11.2939064807  MEMB      38              0.0000000000
      4573        38  PMPE      H6S             9.1990743871      -26.0428426238       10.6574226286  MEMB      38              0.0000000000
      4574        38  PMPE      C27             8.6317287426      -24.2151552948        9.7125640039  MEMB      38              0.0000000000
      4575        38  PMPE      H7R             9.6870291472      -24.0800715381        9.3664295140  MEMB      38              0.0000000000
      4576        38  PMPE      H7S             8.1830954411      -23.2266225029        9.9309232425  MEMB      38              0.0000000000
      4577        38  PMPE      C28             7.7101619743      -24.7482876236        8.6465022017  MEMB      38              0.0000000000
      4578        38  PMPE      H8R             7.6236595430      -24.0357262055        7.7902316975  MEMB      38              0.0000000000
      4579        38  PMPE      H8S             6.7284668766      -25.1024496224        8.9966818407  MEMB      38              0.0000000000
      4580        38  PMPE      C29             8.1911994890      -25.9552424845        8.1097267666  MEMB      38              0.0000000000
      4581        38  PMPE      H9R             8.7559502397      -26.7234189763        8.7028775312  MEMB      38              0.0000000000
      4582        38  PMPE      C217            8.9890602471      -25.5938863959        7.0050700158  MEMB      38              0.0000000000
      4583        38  PMPE      H17R            9.4045865838      -26.4800989441        6.9336216215  MEMB      38              0.0000000000
      4584        38  PMPE      H17S            9.2419096131      -24.7263660944        6.4260690222  MEMB      38              0.0000000000
      4585        38  PMPE      C210            7.7040790219      -26.1915604839        6.7078868746  MEMB      38              0.0000000000
      4586        38  PMPE      H10R            7.8727723028      -27.1021114539        6.2479800247  MEMB      38              0.0000000000
      4587        38  PMPE      C211            7.3752478140      -25.3206426643        5.5855089890  MEMB      38              0.0000000000
      4588        38  PMPE      H11R            7.6600026168      -24.2915792226        5.4953158514  MEMB      38              0.0000000000
      4589        38  PMPE      H11S            6.4023574614      -25.1487260722        6.0561879628  MEMB      38              0.0000000000
      4590        38  PMPE      C212            7.4142311313      -26.0915678435        4.2664204691  MEMB      38              0.0000000000
      4591        38  PMPE      H12R            6.4069908586      -25.9272389009        4.4272239423  MEMB      38              0.0000000000
      4592        38  PMPE      H12S            7.1391254123      -27.0657729293        3.9282274736  MEMB      38              0.0000000000
      4593        38  PMPE      C213            8.0716689665      -25.7515423366        2.9854644654  MEMB      38              0.0000000000
      4594        38  PMPE      H13R            9.0629690379      -25.6375133640        3.3138707501  MEMB      38              0.0000000000
      4595        38  PMPE      H13S            7.7928231554      -24.8267324368        2.4778120120  MEMB      38              0.0000000000
      4596        38  PMPE      C214            8.3149080449      -26.9936710584        2.1442970895  MEMB      38              0.0000000000
      4597        38  PMPE      H14R            7.5277951183      -27.6996863179        1.9568287668  MEMB      38              0.0000000000
      4598        38  PMPE      H14S            8.1703377126      -27.9464376728        2.6732371410  MEMB      38              0.0000000000
      4599        38  PMPE      C215            9.1492954497      -26.8019283115        0.8241056843  MEMB      38              0.0000000000
      4600        38  PMPE      H15R           10.1915766260      -26.7240319127        1.0583329696  MEMB      38              0.0000000000
      4601        38  PMPE      H15S            8.8469343601      -25.8615312250        0.2980119979  MEMB      38              0.0000000000
      4602        38  PMPE      C216            8.9559032437      -27.9639920302       -0.1422290542  MEMB      38              0.0000000000
      4603        38  PMPE      H16R            7.9188079283      -28.1668625722        0.1502521398  MEMB      38              0.0000000000
      4604        38  PMPE      H16S            8.9783692523      -27.7463810846       -1.2303021607  MEMB      38              0.0000000000
      4605        38  PMPE      H16T            9.3142312104      -28.9810208003        0.0667429962  MEMB      38              0.0000000000
      4606        38  PMPE      C33            15.0547244019      -23.8421594572       13.5083643182  MEMB      38              0.0000000000
      4607        38  PMPE      H3X            14.2081763054      -24.5151101080       13.5131621782  MEMB      38              0.0000000000
      4608        38  PMPE      H3Y            16.1150629694      -24.2287492765       13.4102729664  MEMB      38              0.0000000000
      4609        38  PMPE      C34            14.6986682742      -23.3636431397       12.1778653282  MEMB      38              0.0000000000
      4610        38  PMPE      H4X            15.2735056565      -22.6167469774       12.5827679456  MEMB      38              0.0000000000
      4611        38  PMPE      H4Y            14.2437858710      -22.4510938860       11.7426758993  MEMB      38              0.0000000000
      4612        38  PMPE      C35            15.3332533836      -24.2952988861       11.1360873665  MEMB      38              0.0000000000
      4613        38  PMPE      H5X            16.4019738310      -24.7507017310       11.1677589592  MEMB      38              0.0000000000
      4614        38  PMPE      H5Y            15.1798900647      -23.8514619598       10.0782503784  MEMB      38              0.0000000000
      4615        38  PMPE      C36            14.6371926216      -24.8643160460       10.4637286294  MEMB      38              0.0000000000
      4616        38  PMPE      H6X            14.7285409942      -25.3950259043       11.4252731124  MEMB      38              0.0000000000
      4617        38  PMPE      H6Y            15.3549649199      -25.5120347636        9.7650215410  MEMB      38              0.0000000000
      4618        38  PMPE      C37            13.2731052266      -24.0435158095       10.2450845890  MEMB      38              0.0000000000
      4619        38  PMPE      H7X            12.8181236097      -23.6945905213       11.1736134472  MEMB      38              0.0000000000
      4620        38  PMPE      H7Y            12.4121991694      -24.6631192723       10.2417987004  MEMB      38              0.0000000000
      4621        38  PMPE      C38            13.2967344897      -23.0224772114        9.0550117135  MEMB      38              0.0000000000
      4622        38  PMPE      H8X            14.0808639208      -22.2711248257        9.2028029542  MEMB      38              0.0000000000
      4623        38  PMPE      H8Y            12.2750209204      -22.6266968414        8.9374488246  MEMB      38              0.0000000000
      4624        38  PMPE      C39            13.7011189658      -23.5610249561        7.6980994297  MEMB      38              0.0000000000
      4625        38  PMPE      H9X            13.1565461483      -24.3640587997        7.9749630794  MEMB      38              0.0000000000
      4626        38  PMPE      H9Y            14.3142944214      -24.3713843611        7.5048452828  MEMB      38              0.0000000000
      4627        38  PMPE      C310           13.3870122974      -22.8863347220        6.3753216679  MEMB      38              0.0000000000
      4628        38  PMPE      H10X           14.2844134343      -22.2165838539        6.3456520777  MEMB      38              0.0000000000
      4629        38  PMPE      H10Y           12.4258189104      -22.3748836429        6.4098634798  MEMB      38              0.0000000000
      4630        38  PMPE      C311           13.5522353401      -23.7000904908        5.0792194470  MEMB      38              0.0000000000
      4631        38  PMPE      H11X           14.2441448709      -24.5491188668        5.3201034653  MEMB      38              0.0000000000
      4632        38  PMPE      H11Y           13.9351500191      -22.9488637974        4.3639682237  MEMB      38              0.0000000000
      4633        38  PMPE      C312           12.6040861558      -24.4490721323        4.2008617744  MEMB      38              0.0000000000
      4634        38  PMPE      H12X           11.5960374937      -23.9967725352        4.1520225074  MEMB      38              0.0000000000
      4635        38  PMPE      H12Y           12.5883992914      -25.3536138143        4.7230305367  MEMB      38              0.0000000000
      4636        38  PMPE      C313           13.2049492221      -25.2712950651        3.0454575855  MEMB      38              0.0000000000
      4637        38  PMPE      H13X           12.3975446099      -25.8518475655        2.5929073002  MEMB      38              0.0000000000
      4638        38  PMPE      H13Y           13.9505093151      -26.0179877172        3.3266284585  MEMB      38              0.0000000000
      4639        38  PMPE      C314           13.8398625645      -24.4653928073        2.0812039501  MEMB      38              0.0000000000
      4640        38  PMPE      H14X           14.1103687073      -24.9525536724        1.1136445230  MEMB      38              0.0000000000
      4641        38  PMPE      H14Y           14.4676751487      -23.7082026704        2.5356875986  MEMB      38              0.0000000000
      4642        38  PMPE      C315           12.7955344530      -23.6431924646        1.8018244171  MEMB      38              0.0000000000
      4643        38  PMPE      H15X           13.2744251443      -22.6956563340        1.4774529267  MEMB      38              0.0000000000
      4644        38  PMPE      H15Y           12.4558306137      -22.9387653619        2.6047214759  MEMB      38              0.0000000000
      4645        38  PMPE      C316           11.8948315680      -24.6163474565        0.8685690381  MEMB      38              0.0000000000
      4646        38  PMPE      H16X           11.7967509248      -24.0635684552       -0.0609281269  MEMB      38              0.0000000000
      4647        38  PMPE      H16Y           10.9165591221      -24.8256314317        1.3724741725  MEMB      38              0.0000000000
      4648        38  PMPE      H16Z           12.0422820393      -25.3599145058        0.0827858242  MEMB      38              0.0000000000
      4649        39  PMPE      N              30.7458800829        2.5364417980       18.0382746559  MEMB      39              0.0000000000
      4650        39  PMPE      HN1            31.1260255608        3.1345128700       17.2858319752  MEMB      39              0.0000000000
      4651        39  PMPE      HN2            31.5290389645        2.0564058169       18.5048973753  MEMB      39              0.0000000000
      4652        39  PMPE      HN3            30.1941965897        1.7639023878       17.5961940815  MEMB      39              0.0000000000
      4653        39  PMPE      C12            29.8802977753        3.2834767290       19.0234972197  MEMB      39              0.0000000000
      4654        39  PMPE      H12A           29.9268279957        4.3562485283       18.7676205835  MEMB      39              0.0000000000
      4655        39  PMPE      H12B           30.2798152332        3.1823337887       20.0526022484  MEMB      39              0.0000000000
      4656        39  PMPE      C11            28.4484593070        2.7939402574       18.8785930164  MEMB      39              0.0000000000
      4657        39  PMPE      H11A           28.3644605513        1.7339082073       19.2137627076  MEMB      39              0.0000000000
      4658        39  PMPE      H11B           28.1807363020        2.8294672860       17.7946908965  MEMB      39              0.0000000000
      4659        39  PMPE      P              26.0774666393        3.8606128629       19.2480847670  MEMB      39              0.0000000000
      4660        39  PMPE      O13            25.4295161879        4.8047772364       20.1917174044  MEMB      39              0.0000000000
      4661        39  PMPE      O14            25.3862682101        2.5951387039       18.9488911176  MEMB      39              0.0000000000
      4662        39  PMPE      O11            26.3316766035        4.6279757478       17.9083954293  MEMB      39              0.0000000000
      4663        39  PMPE      O12            27.5986841889        3.6234401817       19.6644347261  MEMB      39              0.0000000000
      4664        39  PMPE      C1             27.1865313194        5.7680370998       17.7859738509  MEMB      39              0.0000000000
      4665        39  PMPE      HA             28.1305079879        5.4704989795       17.3035570405  MEMB      39              0.0000000000
      4666        39  PMPE      HB             27.3322269309        6.3160657881       18.7426400901  MEMB      39              0.0000000000
      4667        39  PMPE      C2             26.5992921039        6.7153777461       16.7706014305  MEMB      39              0.0000000000
      4668        39  PMPE      HS             25.7284791591        7.1042217349       17.3788299105  MEMB      39              0.0000000000
      4669        39  PMPE      O21            26.3973841587        5.8487539459       15.5895765333  MEMB      39              0.0000000000
      4670        39  PMPE      C21            25.4885189321        6.5110015192       14.9542689083  MEMB      39              0.0000000000
      4671        39  PMPE      O22            24.9670445094        7.4382418585       15.4250165880  MEMB      39              0.0000000000
      4672        39  PMPE      C22            24.9512237281        5.9704539398       13.7518993874  MEMB      39              0.0000000000
      4673        39  PMPE      H2R            24.7139033782        5.0633223653       14.1916454165  MEMB      39              0.0000000000
      4674        39  PMPE      H2S            25.6305391362        5.4510610314       13.1210442005  MEMB      39              0.0000000000
      4675        39  PMPE      C3             27.3959428598        7.9711301608       16.3451188313  MEMB      39              0.0000000000
      4676        39  PMPE      HX             27.7746133036        8.3526576268       17.3009320486  MEMB      39              0.0000000000
      4677        39  PMPE      HY             26.7883468519        8.7855588581       15.8537041515  MEMB      39              0.0000000000
      4678        39  PMPE      O31            28.4830016086        7.5252339111       15.5542313388  MEMB      39              0.0000000000
      4679        39  PMPE      C31            28.3363998898        7.3795294053       14.2507125653  MEMB      39              0.0000000000
      4680        39  PMPE      O32            27.5147175390        7.8756158841       13.5142102246  MEMB      39              0.0000000000
      4681        39  PMPE      C32            29.5613953035        6.5728139984       13.8529668273  MEMB      39              0.0000000000
      4682        39  PMPE      H2X            29.9291164423        5.9584504900       14.6819598864  MEMB      39              0.0000000000
      4683        39  PMPE      H2Y            30.3855095498        7.2524894703       13.7113635331  MEMB      39              0.0000000000
      4684        39  PMPE      C23            23.7897923006        6.7547320115       13.0838155417  MEMB      39              0.0000000000
      4685        39  PMPE      H3R            22.9849421291        7.2137867006       13.7103867420  MEMB      39              0.0000000000
      4686        39  PMPE      H3S            23.2174011112        6.2509332050       12.2814390434  MEMB      39              0.0000000000
      4687        39  PMPE      C24            24.7770014481        7.4313461234       12.2596808851  MEMB      39              0.0000000000
      4688        39  PMPE      H4R            25.2264758917        6.6496279636       11.6015962475  MEMB      39              0.0000000000
      4689        39  PMPE      H4S            25.3884834343        8.0283681972       12.9461315791  MEMB      39              0.0000000000
      4690        39  PMPE      C25            24.2654568666        8.3899079549       11.4190029187  MEMB      39              0.0000000000
      4691        39  PMPE      H5R            23.8487865009        9.0357141802       12.2080549228  MEMB      39              0.0000000000
      4692        39  PMPE      H5S            23.4879007875        7.7759818462       10.8974636772  MEMB      39              0.0000000000
      4693        39  PMPE      C26            25.1481014376        9.4457964985       10.8260789664  MEMB      39              0.0000000000
      4694        39  PMPE      H6R            25.3720380193       10.2770627238       11.5004928750  MEMB      39              0.0000000000
      4695        39  PMPE      H6S            24.5691680779       10.2352643242       10.3814228466  MEMB      39              0.0000000000
      4696        39  PMPE      C27            25.9075995068        9.0656358637        9.6035370643  MEMB      39              0.0000000000
      4697        39  PMPE      H7R            26.9089644585        8.9754719509        9.9896078458  MEMB      39              0.0000000000
      4698        39  PMPE      H7S            25.7744871800        9.8738048643        8.8191979082  MEMB      39              0.0000000000
      4699        39  PMPE      C28            25.6430144874        7.6880903344        9.0247196772  MEMB      39              0.0000000000
      4700        39  PMPE      H8R            24.6330703000        7.9519770144        8.9675424160  MEMB      39              0.0000000000
      4701        39  PMPE      H8S            25.2153787302        6.7792639189        9.4796940816  MEMB      39              0.0000000000
      4702        39  PMPE      C29            26.6505802885        7.4464907941        7.8451403591  MEMB      39              0.0000000000
      4703        39  PMPE      H9R            27.5444180562        7.0404469732        8.2993471789  MEMB      39              0.0000000000
      4704        39  PMPE      C217           26.9615965766        8.6291895153        6.8872886440  MEMB      39              0.0000000000
      4705        39  PMPE      H17R           27.9561086490        8.8331356886        6.5676777900  MEMB      39              0.0000000000
      4706        39  PMPE      H17S           26.2036536987        9.3993051824        6.7643743749  MEMB      39              0.0000000000
      4707        39  PMPE      C210           26.7005614787        7.1840703734        6.3129584407  MEMB      39              0.0000000000
      4708        39  PMPE      H10R           27.4967748465        6.5720204006        5.9553320539  MEMB      39              0.0000000000
      4709        39  PMPE      C211           25.5908970631        6.8705465827        5.3571232880  MEMB      39              0.0000000000
      4710        39  PMPE      H11R           25.5286165567        7.8716967918        5.6178381750  MEMB      39              0.0000000000
      4711        39  PMPE      H11S           24.8728147539        6.1932505090        5.7986991397  MEMB      39              0.0000000000
      4712        39  PMPE      C212           25.2733196397        6.8859605146        3.8405807390  MEMB      39              0.0000000000
      4713        39  PMPE      H12R           24.2062402153        7.0898034088        3.5234185788  MEMB      39              0.0000000000
      4714        39  PMPE      H12S           25.3894168147        5.8250322656        3.6714964605  MEMB      39              0.0000000000
      4715        39  PMPE      C213           25.9951703514        7.8300604364        2.9541503776  MEMB      39              0.0000000000
      4716        39  PMPE      H13R           26.9198231743        8.1959577249        3.4231127826  MEMB      39              0.0000000000
      4717        39  PMPE      H13S           25.3964712766        8.7053543501        2.9003283690  MEMB      39              0.0000000000
      4718        39  PMPE      C214           25.8104628170        7.5022174235        1.4909643481  MEMB      39              0.0000000000
      4719        39  PMPE      H14R           25.0990638433        8.1846623613        0.9378414351  MEMB      39              0.0000000000
      4720        39  PMPE      H14S           25.5180026605        6.4645684236        1.3861950740  MEMB      39              0.0000000000
      4721        39  PMPE      C215           27.1007853208        7.5946876678        0.8045040032  MEMB      39              0.0000000000
      4722        39  PMPE      H15R           26.9976959016        8.6263470710        0.7437314840  MEMB      39              0.0000000000
      4723        39  PMPE      H15S           27.1194968644        7.4794339653       -0.2795365989  MEMB      39              0.0000000000
      4724        39  PMPE      C216           28.3276451740        7.1344794646        1.5873263551  MEMB      39              0.0000000000
      4725        39  PMPE      H16R           28.6861380709        7.7788030832        2.4248151115  MEMB      39              0.0000000000
      4726        39  PMPE      H16S           28.2269561194        6.1231356524        1.9637074848  MEMB      39              0.0000000000
      4727        39  PMPE      H16T           29.1543596631        7.1635105380        0.9063346043  MEMB      39              0.0000000000
      4728        39  PMPE      C33            29.4884990086        5.9134529959       12.4991794410  MEMB      39              0.0000000000
      4729        39  PMPE      H3X            30.5297189079        5.5750847145       12.2840510683  MEMB      39              0.0000000000
      4730        39  PMPE      H3Y            29.1615471803        6.6447535580       11.7200288752  MEMB      39              0.0000000000
      4731        39  PMPE      C34            28.5596747627        4.7414578551       12.5582062458  MEMB      39              0.0000000000
      4732        39  PMPE      H4X            27.5656362937        5.1452360476       12.8538038949  MEMB      39              0.0000000000
      4733        39  PMPE      H4Y            28.9172184818        4.0558643410       13.3580087636  MEMB      39              0.0000000000
      4734        39  PMPE      C35            28.5662694502        3.9785271138       11.2452314931  MEMB      39              0.0000000000
      4735        39  PMPE      H5X            29.5635450251        3.4916893091       11.1407715063  MEMB      39              0.0000000000
      4736        39  PMPE      H5Y            28.4015704299        4.6437009814       10.3676786557  MEMB      39              0.0000000000
      4737        39  PMPE      C36            27.5352856003        2.8736860286       11.2535919478  MEMB      39              0.0000000000
      4738        39  PMPE      H6X            26.5298756956        3.3299640291       11.2804465027  MEMB      39              0.0000000000
      4739        39  PMPE      H6Y            27.6791297168        2.2782200548       12.1882258590  MEMB      39              0.0000000000
      4740        39  PMPE      C37            27.7158824957        1.9096490447       10.0801850410  MEMB      39              0.0000000000
      4741        39  PMPE      H7X            26.9938572321        1.0845588369       10.2731400691  MEMB      39              0.0000000000
      4742        39  PMPE      H7Y            28.7505506120        1.5062637840       10.1260210801  MEMB      39              0.0000000000
      4743        39  PMPE      C38            27.5366900046        2.4467157036        8.6389548806  MEMB      39              0.0000000000
      4744        39  PMPE      H8X            27.7069158267        1.6004359086        7.9395729664  MEMB      39              0.0000000000
      4745        39  PMPE      H8Y            28.1247679645        3.3505872737        8.4286407801  MEMB      39              0.0000000000
      4746        39  PMPE      C39            26.1421940501        2.8466957638        8.3742320664  MEMB      39              0.0000000000
      4747        39  PMPE      H9X            25.9232438573        3.8165036305        8.8908702493  MEMB      39              0.0000000000
      4748        39  PMPE      H9Y            25.7736237293        1.9006579513        8.8295567869  MEMB      39              0.0000000000
      4749        39  PMPE      C310           25.4492292430        2.8469833383        7.0601585224  MEMB      39              0.0000000000
      4750        39  PMPE      H10X           25.8321070842        2.0191747894        6.4405326157  MEMB      39              0.0000000000
      4751        39  PMPE      H10Y           25.5471960507        3.8824679692        6.6754809450  MEMB      39              0.0000000000
      4752        39  PMPE      C311           23.9915377474        2.5624565518        6.9949378601  MEMB      39              0.0000000000
      4753        39  PMPE      H11X           23.3694583995        3.4676950361        7.3079517836  MEMB      39              0.0000000000
      4754        39  PMPE      H11Y           23.6164746694        1.7140372420        7.6469799042  MEMB      39              0.0000000000
      4755        39  PMPE      C312           23.7400986140        2.4784423370        5.5573601446  MEMB      39              0.0000000000
      4756        39  PMPE      H12X           22.9509990382        1.9348256877        6.0603206837  MEMB      39              0.0000000000
      4757        39  PMPE      H12Y           23.6525953486        1.6167225291        4.9138231152  MEMB      39              0.0000000000
      4758        39  PMPE      C313           23.7418174677        4.0148213084        5.0937732297  MEMB      39              0.0000000000
      4759        39  PMPE      H13X           24.6674423453        4.0597450436        4.5363693482  MEMB      39              0.0000000000
      4760        39  PMPE      H13Y           23.6438165450        4.7115461894        5.9785770889  MEMB      39              0.0000000000
      4761        39  PMPE      C314           22.9692623485        4.7385684947        3.9783223821  MEMB      39              0.0000000000
      4762        39  PMPE      H14X           22.3381077781        5.6230974360        3.7435390472  MEMB      39              0.0000000000
      4763        39  PMPE      H14Y           22.3482246403        5.0931826656        4.8040142952  MEMB      39              0.0000000000
      4764        39  PMPE      C315           22.8690144583        3.7856365760        2.8194885930  MEMB      39              0.0000000000
      4765        39  PMPE      H15X           21.8937683409        3.3834109924        2.6219387776  MEMB      39              0.0000000000
      4766        39  PMPE      H15Y           23.3031629469        2.7822768204        2.9969130878  MEMB      39              0.0000000000
      4767        39  PMPE      C316           23.2214012669        4.5779668633        1.6230781513  MEMB      39              0.0000000000
      4768        39  PMPE      H16X           22.3862821423        5.3378256459        1.5412959607  MEMB      39              0.0000000000
      4769        39  PMPE      H16Y           23.2282017717        3.9950423818        0.6869997909  MEMB      39              0.0000000000
      4770        39  PMPE      H16Z           24.2200810259        4.9458370379        1.7763104705  MEMB      39              0.0000000000
      4771        40  PMPG      C13           -24.3278696035       13.2240619210       21.0833607869  MEMB      40              0.0000000000
      4772        40  PMPG      H13A          -25.1018763169       12.9668896006       21.8384613050  MEMB      40              0.0000000000
      4773        40  PMPG      H13B          -24.4007368796       12.5100964290       20.2340082415  MEMB      40              0.0000000000
      4774        40  PMPG      OC3           -23.0325466083       13.0808268334       21.6942543783  MEMB      40              0.0000000000
      4775        40  PMPG      HO3           -22.7728263790       13.9624289418       21.9529483288  MEMB      40              0.0000000000
      4776        40  PMPG      C12           -24.7073968436       14.6635222301       20.6002996970  MEMB      40              0.0000000000
      4777        40  PMPG      H12A          -25.0054195601       15.2453348599       21.4949663958  MEMB      40              0.0000000000
      4778        40  PMPG      OC2           -25.9202649663       14.6518839600       19.8392654758  MEMB      40              0.0000000000
      4779        40  PMPG      HO2           -25.8631353765       15.3950393614       19.2168865071  MEMB      40              0.0000000000
      4780        40  PMPG      C11           -23.5422779407       15.4410529158       19.9128212152  MEMB      40              0.0000000000
      4781        40  PMPG      H11A          -22.7232272542       15.5247505971       20.6621032548  MEMB      40              0.0000000000
      4782        40  PMPG      H11B          -23.8453056855       16.4873015563       19.6892255647  MEMB      40              0.0000000000
      4783        40  PMPG      P             -23.8666188793       14.5771681738       17.4627781904  MEMB      40              0.0000000000
      4784        40  PMPG      O13           -24.8147357982       15.7110107755       17.3324039172  MEMB      40              0.0000000000
      4785        40  PMPG      O14           -24.3720497401       13.1905519370       17.3748485694  MEMB      40              0.0000000000
      4786        40  PMPG      O11           -22.7503091739       14.7605739892       16.3968169476  MEMB      40              0.0000000000
      4787        40  PMPG      O12           -23.0023992712       14.7890200719       18.7689470173  MEMB      40              0.0000000000
      4788        40  PMPG      C1            -21.3902626794       14.7576490356       16.7728249071  MEMB      40              0.0000000000
      4789        40  PMPG      HA            -21.1195984584       13.8792501296       17.4388006505  MEMB      40              0.0000000000
      4790        40  PMPG      HB            -21.0674723361       15.7033150041       17.2301523955  MEMB      40              0.0000000000
      4791        40  PMPG      C2            -20.6972202752       14.5594738514       15.4743079875  MEMB      40              0.0000000000
      4792        40  PMPG      HS            -19.5875922093       14.6698475376       15.6401073770  MEMB      40              0.0000000000
      4793        40  PMPG      O21           -21.0628579466       15.2950596841       14.3155555581  MEMB      40              0.0000000000
      4794        40  PMPG      C21           -21.1104724602       16.5427519225       14.3883370878  MEMB      40              0.0000000000
      4795        40  PMPG      O22           -20.5601032537       17.2630493366       15.2008898899  MEMB      40              0.0000000000
      4796        40  PMPG      C22           -22.0075898516       17.0017757416       13.2420076601  MEMB      40              0.0000000000
      4797        40  PMPG      H2R           -22.2475625249       18.0525601880       13.4850858161  MEMB      40              0.0000000000
      4798        40  PMPG      H2S           -22.9425063822       16.4050373425       13.2735257979  MEMB      40              0.0000000000
      4799        40  PMPG      C3            -21.0459473448       13.1450064467       15.1530136044  MEMB      40              0.0000000000
      4800        40  PMPG      HX            -20.6881489092       12.4651369242       15.9546872637  MEMB      40              0.0000000000
      4801        40  PMPG      HY            -20.4742487288       13.2811188170       14.2477914511  MEMB      40              0.0000000000
      4802        40  PMPG      O31           -22.2619929491       12.7070711118       14.6752939294  MEMB      40              0.0000000000
      4803        40  PMPG      C31           -22.3590614304       12.0509234633       13.5546664458  MEMB      40              0.0000000000
      4804        40  PMPG      O32           -21.5264612512       11.6405159161       12.7672536495  MEMB      40              0.0000000000
      4805        40  PMPG      C32           -23.8060556952       12.0283926646       13.3730915491  MEMB      40              0.0000000000
      4806        40  PMPG      H2X           -24.2284566464       11.7057074427       14.3546936042  MEMB      40              0.0000000000
      4807        40  PMPG      H2Y           -24.0066077067       11.2876268274       12.5846455064  MEMB      40              0.0000000000
      4808        40  PMPG      C23           -21.3759888362       16.9409804829       11.8259758441  MEMB      40              0.0000000000
      4809        40  PMPG      H3R           -20.4766440147       17.6097833615       11.8005608221  MEMB      40              0.0000000000
      4810        40  PMPG      H3S           -22.1239910891       17.2596822272       11.0812515354  MEMB      40              0.0000000000
      4811        40  PMPG      C24           -21.0048626734       15.5518970688       11.3089887328  MEMB      40              0.0000000000
      4812        40  PMPG      H4R           -21.6864556308       14.7133089381       11.5162967714  MEMB      40              0.0000000000
      4813        40  PMPG      H4S           -20.0952323984       15.4643685074       11.9313983187  MEMB      40              0.0000000000
      4814        40  PMPG      C25           -20.7067627974       15.4824484434        9.8055239861  MEMB      40              0.0000000000
      4815        40  PMPG      H5R           -20.0778624261       16.3702451477        9.7891026757  MEMB      40              0.0000000000
      4816        40  PMPG      H5S           -21.4724902995       15.8378305596        9.1107796665  MEMB      40              0.0000000000
      4817        40  PMPG      C26           -20.0365141985       14.1653140864        9.2815636742  MEMB      40              0.0000000000
      4818        40  PMPG      H6R           -19.4770486417       13.5889044512       10.0553018302  MEMB      40              0.0000000000
      4819        40  PMPG      H6S           -19.2910842989       14.3179025841        8.4849760759  MEMB      40              0.0000000000
      4820        40  PMPG      C27           -20.9722467949       13.1210480139        8.8306105167  MEMB      40              0.0000000000
      4821        40  PMPG      H7R           -21.6404994675       12.9734984495        9.7000803926  MEMB      40              0.0000000000
      4822        40  PMPG      H7S           -20.3652695911       12.2004796503        8.6561379946  MEMB      40              0.0000000000
      4823        40  PMPG      C28           -21.7293258828       13.5448443158        7.6070084995  MEMB      40              0.0000000000
      4824        40  PMPG      H8R           -21.0766289894       13.5175729277        6.7519846317  MEMB      40              0.0000000000
      4825        40  PMPG      H8S           -22.2064613871       14.5419592065        7.6866237614  MEMB      40              0.0000000000
      4826        40  PMPG      C29           -22.6829708004       12.4862394748        7.2757072534  MEMB      40              0.0000000000
      4827        40  PMPG      H9R           -23.5479194485       12.3863448479        7.9326141598  MEMB      40              0.0000000000
      4828        40  PMPG      C217          -22.9857842402       12.2939886042        5.8091203149  MEMB      40              0.0000000000
      4829        40  PMPG      H17R          -24.0000297769       11.9681325314        5.6650704760  MEMB      40              0.0000000000
      4830        40  PMPG      H17S          -22.4475648572       12.9445013019        5.1567141915  MEMB      40              0.0000000000
      4831        40  PMPG      C210          -22.1227390276       11.2877609292        6.5710317170  MEMB      40              0.0000000000
      4832        40  PMPG      H10R          -22.6531045160       10.3615489198        6.8147813217  MEMB      40              0.0000000000
      4833        40  PMPG      C211          -20.6543877773       11.1730700457        6.1087876950  MEMB      40              0.0000000000
      4834        40  PMPG      H11R          -20.2553493835       12.0005239301        5.4974705897  MEMB      40              0.0000000000
      4835        40  PMPG      H11S          -19.9678510990       10.9891584973        6.9644340183  MEMB      40              0.0000000000
      4836        40  PMPG      C212          -20.6068671288        9.9805396833        5.1984061707  MEMB      40              0.0000000000
      4837        40  PMPG      H12R          -21.2507585395        9.2587406437        5.6798157252  MEMB      40              0.0000000000
      4838        40  PMPG      H12S          -19.5697763194        9.5770634683        5.1008405605  MEMB      40              0.0000000000
      4839        40  PMPG      C213          -21.4425751494       10.1291878901        3.9310110306  MEMB      40              0.0000000000
      4840        40  PMPG      H13R          -20.9073991940       10.8264968804        3.2520195100  MEMB      40              0.0000000000
      4841        40  PMPG      H13S          -22.4964533031       10.3897654295        4.1257042063  MEMB      40              0.0000000000
      4842        40  PMPG      C214          -21.5910324990        8.7724150737        3.3021077664  MEMB      40              0.0000000000
      4843        40  PMPG      H14R          -21.8741362827        7.9438609100        3.9499027798  MEMB      40              0.0000000000
      4844        40  PMPG      H14S          -20.4716614340        8.7054779209        3.2875956804  MEMB      40              0.0000000000
      4845        40  PMPG      C215          -22.5494513764        8.5887166708        2.0426682321  MEMB      40              0.0000000000
      4846        40  PMPG      H15R          -22.3827530439        9.5303384165        1.4660130575  MEMB      40              0.0000000000
      4847        40  PMPG      H15S          -23.5701674217        8.8500962621        2.2706403570  MEMB      40              0.0000000000
      4848        40  PMPG      C216          -22.6542398317        7.1724054107        1.2319129915  MEMB      40              0.0000000000
      4849        40  PMPG      H16R          -21.8065969351        7.0345754037        0.5665302371  MEMB      40              0.0000000000
      4850        40  PMPG      H16S          -23.0189824766        7.0009225205        0.1904102768  MEMB      40              0.0000000000
      4851        40  PMPG      H16T          -22.2680392435        6.3366447487        1.7625838095  MEMB      40              0.0000000000
      4852        40  PMPG      C33           -24.1773008534       13.4746465073       12.9979927877  MEMB      40              0.0000000000
      4853        40  PMPG      H3X           -23.5606528487       13.7964830508       12.1299692198  MEMB      40              0.0000000000
      4854        40  PMPG      H3Y           -23.9294181755       14.1873885920       13.8270198569  MEMB      40              0.0000000000
      4855        40  PMPG      C34           -25.6461762384       13.5576660329       12.6076779245  MEMB      40              0.0000000000
      4856        40  PMPG      H4X           -26.2455327527       13.3977476756       13.5292199209  MEMB      40              0.0000000000
      4857        40  PMPG      H4Y           -25.8576928459       12.7099805781       11.9188113149  MEMB      40              0.0000000000
      4858        40  PMPG      C35           -26.0286243489       14.8687381121       11.9029163027  MEMB      40              0.0000000000
      4859        40  PMPG      H5X           -25.8211948686       15.7265972325       12.5800661367  MEMB      40              0.0000000000
      4860        40  PMPG      H5Y           -27.1214378644       14.8808304360       11.6882554694  MEMB      40              0.0000000000
      4861        40  PMPG      C36           -25.2615054181       15.0520835942       10.5909822541  MEMB      40              0.0000000000
      4862        40  PMPG      H6X           -25.3298033354       14.1342788974        9.9682880347  MEMB      40              0.0000000000
      4863        40  PMPG      H6Y           -24.1849691609       15.2423663037       10.8108842737  MEMB      40              0.0000000000
      4864        40  PMPG      C37           -25.8055949720       16.1531363918        9.7016509530  MEMB      40              0.0000000000
      4865        40  PMPG      H7X           -25.8517227697       17.0982458968       10.3001321596  MEMB      40              0.0000000000
      4866        40  PMPG      H7Y           -26.8292830348       15.9056733256        9.3542559541  MEMB      40              0.0000000000
      4867        40  PMPG      C38           -24.8687626324       16.3184542812        8.5098255396  MEMB      40              0.0000000000
      4868        40  PMPG      H8X           -23.8206995989       16.3674889955        8.8765861731  MEMB      40              0.0000000000
      4869        40  PMPG      H8Y           -25.1175115605       17.2811534136        8.1039905550  MEMB      40              0.0000000000
      4870        40  PMPG      C39           -25.0146311277       15.4320335520        7.2612265778  MEMB      40              0.0000000000
      4871        40  PMPG      H9X           -24.9665428158       14.3855733341        7.5989718355  MEMB      40              0.0000000000
      4872        40  PMPG      H9Y           -24.1603459913       15.6261979028        6.5672221520  MEMB      40              0.0000000000
      4873        40  PMPG      C310          -26.2932855064       15.6976291916        6.4574306187  MEMB      40              0.0000000000
      4874        40  PMPG      H10X          -26.3511902877       16.7647560262        6.1852519986  MEMB      40              0.0000000000
      4875        40  PMPG      H10Y          -27.1838103062       15.3902524287        7.0617016025  MEMB      40              0.0000000000
      4876        40  PMPG      C311          -26.4217291227       14.9634405742        5.1319993631  MEMB      40              0.0000000000
      4877        40  PMPG      H11X          -27.5101910402       15.0452039564        4.8752673102  MEMB      40              0.0000000000
      4878        40  PMPG      H11Y          -26.1007391691       13.9345319291        5.3393867727  MEMB      40              0.0000000000
      4879        40  PMPG      C312          -25.4565221562       15.2747598218        3.9797637495  MEMB      40              0.0000000000
      4880        40  PMPG      H12X          -24.4485199896       15.2022691951        4.4282684560  MEMB      40              0.0000000000
      4881        40  PMPG      H12Y          -25.7261831659       16.2744551433        3.6452396572  MEMB      40              0.0000000000
      4882        40  PMPG      C313          -25.5126754266       14.3888713671        2.7120137596  MEMB      40              0.0000000000
      4883        40  PMPG      H13X          -26.4033309352       14.7546305096        2.1473519932  MEMB      40              0.0000000000
      4884        40  PMPG      H13Y          -25.6199923658       13.3181516921        2.9962647070  MEMB      40              0.0000000000
      4885        40  PMPG      C314          -24.3973433347       14.4915571358        1.6899423273  MEMB      40              0.0000000000
      4886        40  PMPG      H14X          -23.4665820163       14.3597528919        2.2769007821  MEMB      40              0.0000000000
      4887        40  PMPG      H14Y          -24.4682599570       15.5265530885        1.2906537860  MEMB      40              0.0000000000
      4888        40  PMPG      C315          -24.4460500303       13.4541516077        0.5329959007  MEMB      40              0.0000000000
      4889        40  PMPG      H15X          -23.5156135867       13.5917230000       -0.0663252951  MEMB      40              0.0000000000
      4890        40  PMPG      H15Y          -25.2883757156       13.6615125872       -0.1692035079  MEMB      40              0.0000000000
      4891        40  PMPG      C316          -24.5066452485       11.9779283345        0.9731900329  MEMB      40              0.0000000000
      4892        40  PMPG      H16X          -23.8939507213       11.8085304482        1.8787557548  MEMB      40              0.0000000000
      4893        40  PMPG      H16Y          -24.2201501128       11.2882987131        0.1556468473  MEMB      40              0.0000000000
      4894        40  PMPG      H16Z          -25.5033163827       11.6331639351        1.2654723240  MEMB      40              0.0000000000
      4895        41  QMPE      N              -2.1380146347       25.7247536683       20.8955258396  MEMB      41              0.0000000000
      4896        41  QMPE      HN1            -2.5911615233       25.7210970895       21.8328122758  MEMB      41              0.0000000000
      4897        41  QMPE      HN2            -2.8160774072       25.6598336585       20.1038635884  MEMB      41              0.0000000000
      4898        41  QMPE      HN3            -1.4390783755       24.9648414200       20.8050469923  MEMB      41              0.0000000000
      4899        41  QMPE      C12            -1.4874662483       27.0618035705       20.7326935857  MEMB      41              0.0000000000
      4900        41  QMPE      H12A           -0.5753533979       27.0512584841       21.3626264853  MEMB      41              0.0000000000
      4901        41  QMPE      H12B           -2.1930329748       27.8123505687       21.1422746080  MEMB      41              0.0000000000
      4902        41  QMPE      C11            -1.1811985446       27.3049152410       19.2410807470  MEMB      41              0.0000000000
      4903        41  QMPE      H11A           -0.6837547068       26.3942098373       18.8479489996  MEMB      41              0.0000000000
      4904        41  QMPE      H11B           -0.4453784103       28.1261636190       19.1263826776  MEMB      41              0.0000000000
      4905        41  QMPE      P              -3.0187307384       28.9811549822       18.2770129544  MEMB      41              0.0000000000
      4906        41  QMPE      O13            -2.6596231542       29.7657673769       19.4654079451  MEMB      41              0.0000000000
      4907        41  QMPE      O14            -4.4612754306       28.7824271442       18.0251491379  MEMB      41              0.0000000000
      4908        41  QMPE      O11            -2.2986113236       29.6222693029       17.0353857933  MEMB      41              0.0000000000
      4909        41  QMPE      O12            -2.3552587950       27.5390856655       18.4628886364  MEMB      41              0.0000000000
      4910        41  QMPE      C1             -1.0165550449       30.2438669446       17.1428539050  MEMB      41              0.0000000000
      4911        41  QMPE      HA             -0.3097965612       29.7762350308       17.8367839230  MEMB      41              0.0000000000
      4912        41  QMPE      HB             -1.1992474470       31.2399777242       17.6193231963  MEMB      41              0.0000000000
      4913        41  QMPE      C2             -0.3597522376       30.3749883940       15.6959629627  MEMB      41              0.0000000000
      4914        41  QMPE      HS              0.5130881789       31.0862313455       15.7408154222  MEMB      41              0.0000000000
      4915        41  QMPE      O21            -1.3696354570       30.7173123390       14.6914503869  MEMB      41              0.0000000000
      4916        41  QMPE      C21            -1.8591738337       31.8183020856       15.1575495739  MEMB      41              0.0000000000
      4917        41  QMPE      O22            -1.1129919708       32.4716914268       15.9114350314  MEMB      41              0.0000000000
      4918        41  QMPE      C22            -3.3471246536       32.1834958936       14.4629264279  MEMB      41              0.0000000000
      4919        41  QMPE      H2R            -3.8006027834       33.0430594208       15.0078365868  MEMB      41              0.0000000000
      4920        41  QMPE      H2S            -3.8296827495       31.3531922743       13.9477458417  MEMB      41              0.0000000000
      4921        41  QMPE      C3              0.2660537167       29.1085055804       15.1599291526  MEMB      41              0.0000000000
      4922        41  QMPE      HX              1.1936743203       28.8986286679       15.7294871608  MEMB      41              0.0000000000
      4923        41  QMPE      HY              0.5490821784       29.2949719748       14.0929536876  MEMB      41              0.0000000000
      4924        41  QMPE      O31            -0.6788068053       28.0487381784       15.3188540537  MEMB      41              0.0000000000
      4925        41  QMPE      C31            -1.5405941385       27.9076745685       14.3102205636  MEMB      41              0.0000000000
      4926        41  QMPE      O32            -1.4327235504       28.3901396912       13.1982522281  MEMB      41              0.0000000000
      4927        41  QMPE      C32            -2.6432650896       26.9669409838       14.7267397603  MEMB      41              0.0000000000
      4928        41  QMPE      H2X            -2.2227113745       25.9707395706       14.8459647655  MEMB      41              0.0000000000
      4929        41  QMPE      H2Y            -3.0108024298       27.3266092958       15.7115698746  MEMB      41              0.0000000000
      4930        41  QMPE      C23            -3.7280316836       33.0498534625       13.1712402203  MEMB      41              0.0000000000
      4931        41  QMPE      H3R            -2.7040106457       32.5875590163       13.2396951801  MEMB      41              0.0000000000
      4932        41  QMPE      H3S            -3.6622862949       34.1640021530       13.3715813786  MEMB      41              0.0000000000
      4933        41  QMPE      C24            -3.9837271587       32.7914644637       11.5743805033  MEMB      41              0.0000000000
      4934        41  QMPE      H4R            -4.9131447773       33.3078750450       11.9106132702  MEMB      41              0.0000000000
      4935        41  QMPE      H4S            -3.7415912439       31.7550831077       11.5825292462  MEMB      41              0.0000000000
      4936        41  QMPE      C25            -3.4553532926       33.2182540001       10.0672063074  MEMB      41              0.0000000000
      4937        41  QMPE      H5R            -3.0621352860       34.1245462349        9.8862542470  MEMB      41              0.0000000000
      4938        41  QMPE      H5S            -4.1084591566       33.2536936756        9.1930608156  MEMB      41              0.0000000000
      4939        41  QMPE      C26            -2.3675172481       32.8560949228        8.8305454946  MEMB      41              0.0000000000
      4940        41  QMPE      H6R            -2.4993728336       31.7112613861        9.0291536923  MEMB      41              0.0000000000
      4941        41  QMPE      H6S            -1.9513446604       31.9746662455        8.6842292080  MEMB      41              0.0000000000
      4942        41  QMPE      C27            -0.3728851481       34.0623648121        8.1058921784  MEMB      41              0.0000000000
      4943        41  QMPE      H7R            -0.6153216597       34.8166192468        7.4523810158  MEMB      41              0.0000000000
      4944        41  QMPE      H7S            -0.6974196718       34.3859345229        8.0463440764  MEMB      41              0.0000000000
      4945        41  QMPE      C28             1.1715332632       33.2293149466        7.7594421726  MEMB      41              0.0000000000
      4946        41  QMPE      H8R             1.6414826879       34.0107935137        8.1849342342  MEMB      41              0.0000000000
      4947        41  QMPE      H8S             0.4929303914       33.5701167329        7.1417714793  MEMB      41              0.0000000000
      4948        41  QMPE      C29             1.0821432626       31.7745415416        8.0751488086  MEMB      41              0.0000000000
      4949        41  QMPE      H9R             0.3497321362       30.9503335175        8.0181845378  MEMB      41              0.0000000000
      4950        41  QMPE      C217            2.1367506127       31.8105767726        9.2591608923  MEMB      41              0.0000000000
      4951        41  QMPE      H17R            2.3948107533       32.8045836732        9.5202680708  MEMB      41              0.0000000000
      4952        41  QMPE      H17S            1.7711591517       31.1841845559       10.0382276415  MEMB      41              0.0000000000
      4953        41  QMPE      C210            2.3906379033       31.4348941012        7.8525281708  MEMB      41              0.0000000000
      4954        41  QMPE      H10R            2.6222829974       30.4054575420        7.7238737207  MEMB      41              0.0000000000
      4955        41  QMPE      C211            3.0619961323       32.4733959046        7.0764139686  MEMB      41              0.0000000000
      4956        41  QMPE      H11R            3.1427333421       33.5011183271        7.4371978017  MEMB      41              0.0000000000
      4957        41  QMPE      H11S            3.9521888351       32.0577783027        7.4566918046  MEMB      41              0.0000000000
      4958        41  QMPE      C212            2.9654996634       32.6440051480        5.5607137259  MEMB      41              0.0000000000
      4959        41  QMPE      H12R            1.9830459702       32.2921778220        5.4574533202  MEMB      41              0.0000000000
      4960        41  QMPE      H12S            3.1062305726       31.7913307929        4.9745272700  MEMB      41              0.0000000000
      4961        41  QMPE      C213            3.2588352612       34.0895803058        4.9503221669  MEMB      41              0.0000000000
      4962        41  QMPE      H13R            4.1990730741       34.5695539940        5.0564022496  MEMB      41              0.0000000000
      4963        41  QMPE      H13S            3.0099924318       34.9685159314        5.5805404518  MEMB      41              0.0000000000
      4964        41  QMPE      C214            2.8732702220       34.3884567272        3.5321256018  MEMB      41              0.0000000000
      4965        41  QMPE      H14R            3.0396654614       35.4552815627        3.5697348195  MEMB      41              0.0000000000
      4966        41  QMPE      H14S            3.7531588510       34.7157639499        3.0090544865  MEMB      41              0.0000000000
      4967        41  QMPE      C215            3.0705667631       33.3581587529        2.6106858771  MEMB      41              0.0000000000
      4968        41  QMPE      H15R            2.4894821575       32.4329703615        2.7115286726  MEMB      41              0.0000000000
      4969        41  QMPE      H15S            3.9695469740       32.9853499789        3.1850704666  MEMB      41              0.0000000000
      4970        41  QMPE      C216            3.3574014825       34.0256718812        1.2094898864  MEMB      41              0.0000000000
      4971        41  QMPE      H16R            4.2618851615       34.5960138889        1.0360047172  MEMB      41              0.0000000000
      4972        41  QMPE      H16S            2.5333664325       34.6107447241        0.9964385748  MEMB      41              0.0000000000
      4973        41  QMPE      H16T            3.4981037613       33.4837824817        0.3032202495  MEMB      41              0.0000000000
      4974        41  QMPE      C33            -3.7725152422       26.8500995471       13.6806135760  MEMB      41              0.0000000000
      4975        41  QMPE      H3X            -4.0812494408       27.8393505936       13.3085213987  MEMB      41              0.0000000000
      4976        41  QMPE      H3Y            -4.6043073640       26.3405643629       14.2247917591  MEMB      41              0.0000000000
      4977        41  QMPE      C34            -3.4497885002       26.0292585939       12.4237781190  MEMB      41              0.0000000000
      4978        41  QMPE      H4X            -3.3039911527       25.0777523737       12.8326583226  MEMB      41              0.0000000000
      4979        41  QMPE      H4Y            -2.4964418830       26.2862500267       11.9237767708  MEMB      41              0.0000000000
      4980        41  QMPE      C35            -4.6145191904       25.6311720736       11.5132074325  MEMB      41              0.0000000000
      4981        41  QMPE      H5X            -5.4424970446       25.2313925691       12.1443672424  MEMB      41              0.0000000000
      4982        41  QMPE      H5Y            -4.3166675681       24.7986064550       10.8434220120  MEMB      41              0.0000000000
      4983        41  QMPE      C36            -5.0386632669       26.7918889305       10.6532814892  MEMB      41              0.0000000000
      4984        41  QMPE      H6X            -5.2165043042       27.6248345662       11.3661511139  MEMB      41              0.0000000000
      4985        41  QMPE      H6Y            -5.9864503831       26.5464472963       10.1223081247  MEMB      41              0.0000000000
      4986        41  QMPE      C37            -3.9732083243       27.1986789517        9.6252547944  MEMB      41              0.0000000000
      4987        41  QMPE      H7X            -3.0126908686       27.4946927278       10.0926022318  MEMB      41              0.0000000000
      4988        41  QMPE      H7Y            -3.8055003840       26.3722321845        8.9037814082  MEMB      41              0.0000000000
      4989        41  QMPE      C38            -4.4441413880       28.3669690565        8.8206861901  MEMB      41              0.0000000000
      4990        41  QMPE      H8X            -5.4612997575       28.0549046291        8.4683510572  MEMB      41              0.0000000000
      4991        41  QMPE      H8Y            -4.4990634719       29.2796751608        9.4750620262  MEMB      41              0.0000000000
      4992        41  QMPE      C39            -3.6850973038       28.6656640407        7.5525148890  MEMB      41              0.0000000000
      4993        41  QMPE      H9X            -3.8373995118       27.8455709814        6.8230102710  MEMB      41              0.0000000000
      4994        41  QMPE      H9Y            -2.6065809411       28.8452906231        7.7431060802  MEMB      41              0.0000000000
      4995        41  QMPE      C310           -4.3062642836       29.8773162612        6.9856015411  MEMB      41              0.0000000000
      4996        41  QMPE      H10X           -4.2619253013       30.6996795431        7.7554832822  MEMB      41              0.0000000000
      4997        41  QMPE      H10Y           -5.3457983898       29.7230998437        6.6374547279  MEMB      41              0.0000000000
      4998        41  QMPE      C311           -3.8678790354       30.3659321204        5.6825444723  MEMB      41              0.0000000000
      4999        41  QMPE      H11X           -3.5901684908       29.8745538407        4.7481148233  MEMB      41              0.0000000000
      5000        41  QMPE      H11Y           -2.7235879651       30.2213835988        5.9905803337  MEMB      41              0.0000000000
      5001        41  QMPE      C312           -4.9886755619       31.3542088941        5.4469517981  MEMB      41              0.0000000000
      5002        41  QMPE      H12X           -4.8050006755       31.9787551856        6.4120591276  MEMB      41              0.0000000000
      5003        41  QMPE      H12Y           -5.8014801511       32.0175862491        5.3594069919  MEMB      41              0.0000000000
      5004        41  QMPE      C313           -4.2945589334       32.5657925511        4.4218782529  MEMB      41              0.0000000000
      5005        41  QMPE      H13X           -4.9031076334       33.5081075228        4.4814503299  MEMB      41              0.0000000000
      5006        41  QMPE      H13Y           -3.4240849218       33.1954812837        4.8239671607  MEMB      41              0.0000000000
      5007        41  QMPE      C314           -3.2023842449       31.9992200821        3.4000318358  MEMB      41              0.0000000000
      5008        41  QMPE      H14X           -3.9147556299       31.7964415390        2.6039785608  MEMB      41              0.0000000000
      5009        41  QMPE      H14Y           -2.4685229447       31.2016602375        3.7055305983  MEMB      41              0.0000000000
      5010        41  QMPE      C315           -2.1477165537       32.7631953850        2.7106911990  MEMB      41              0.0000000000
      5011        41  QMPE      H15X           -1.1013652853       33.0306206702        2.9577772098  MEMB      41              0.0000000000
      5012        41  QMPE      H15Y           -2.2268446055       32.7176899675        1.6089761665  MEMB      41              0.0000000000
      5013        41  QMPE      H15Z           -2.6281098167       33.6676488492        3.1219513117  MEMB      41              0.0000000000
      5014        42  PMPE      N              22.2779540280      -15.8361129516       19.7555843169  MEMB      42              0.0000000000
      5015        42  PMPE      HN1            22.7994827783      -15.1314202976       20.2871769994  MEMB      42              0.0000000000
      5016        42  PMPE      HN2            21.6980585618      -15.4651583758       18.9797475460  MEMB      42              0.0000000000
      5017        42  PMPE      HN3            21.6114346301      -16.3589531943       20.3819422655  MEMB      42              0.0000000000
      5018        42  PMPE      C12            23.2322593973      -16.8794701439       19.2062714927  MEMB      42              0.0000000000
      5019        42  PMPE      H12A           23.8019571589      -17.2895256575       20.0698930846  MEMB      42              0.0000000000
      5020        42  PMPE      H12B           23.8920073408      -16.4345553196       18.4540286492  MEMB      42              0.0000000000
      5021        42  PMPE      C11            22.4517712183      -17.9324982475       18.4947758947  MEMB      42              0.0000000000
      5022        42  PMPE      H11A           23.1020853495      -18.8329318438       18.2633566421  MEMB      42              0.0000000000
      5023        42  PMPE      H11B           22.0530693001      -17.6026622431       17.5159954812  MEMB      42              0.0000000000
      5024        42  PMPE      P              20.6790998040      -19.4045836058       19.2177085310  MEMB      42              0.0000000000
      5025        42  PMPE      O13            19.6519178557      -19.5986345347       20.2767432300  MEMB      42              0.0000000000
      5026        42  PMPE      O14            21.7358990454      -20.3814437107       18.9657793658  MEMB      42              0.0000000000
      5027        42  PMPE      O11            20.0378200853      -19.2186857340       17.7897049460  MEMB      42              0.0000000000
      5028        42  PMPE      O12            21.3578829208      -18.1034523582       19.3832743725  MEMB      42              0.0000000000
      5029        42  PMPE      C1             19.3911776643      -18.0733522646       17.3952649042  MEMB      42              0.0000000000
      5030        42  PMPE      HA             20.0951763035      -17.2653628226       17.4189570139  MEMB      42              0.0000000000
      5031        42  PMPE      HB             18.4474238373      -17.9616707108       18.0078710255  MEMB      42              0.0000000000
      5032        42  PMPE      C2             19.1475363645      -18.0379007778       15.8998601353  MEMB      42              0.0000000000
      5033        42  PMPE      HS             18.0909941985      -18.3798939019       16.1918784538  MEMB      42              0.0000000000
      5034        42  PMPE      O21            20.0103691233      -18.8867285917       15.0648447451  MEMB      42              0.0000000000
      5035        42  PMPE      C21            19.2012590835      -19.1286505022       14.0534968932  MEMB      42              0.0000000000
      5036        42  PMPE      O22            18.0152707928      -18.7293928200       14.2231454470  MEMB      42              0.0000000000
      5037        42  PMPE      C22            19.9272560663      -20.2988038668       12.9925476519  MEMB      42              0.0000000000
      5038        42  PMPE      H2R            20.4030592690      -21.1160879965       13.5513954846  MEMB      42              0.0000000000
      5039        42  PMPE      H2S            20.6792837933      -19.6707937170       12.5827897139  MEMB      42              0.0000000000
      5040        42  PMPE      C3             19.3108694155      -16.6895634772       15.0958574093  MEMB      42              0.0000000000
      5041        42  PMPE      HX             20.3545667154      -16.4320411628       15.1468250983  MEMB      42              0.0000000000
      5042        42  PMPE      HY             18.7873939046      -15.9442955249       15.6062049803  MEMB      42              0.0000000000
      5043        42  PMPE      O31            18.8125840903      -16.7353198206       13.7122421941  MEMB      42              0.0000000000
      5044        42  PMPE      C31            19.1230481390      -15.9712099278       12.8082383801  MEMB      42              0.0000000000
      5045        42  PMPE      O32            19.8479088589      -14.9959209645       12.9534481104  MEMB      42              0.0000000000
      5046        42  PMPE      C32            18.3635116703      -16.3858599136       11.5481903330  MEMB      42              0.0000000000
      5047        42  PMPE      H2X            17.2550822218      -16.2459564714       11.5817451972  MEMB      42              0.0000000000
      5048        42  PMPE      H2Y            18.5474054147      -17.4623826251       11.4205549314  MEMB      42              0.0000000000
      5049        42  PMPE      C23            19.4987601554      -21.1874118914       11.6747190059  MEMB      42              0.0000000000
      5050        42  PMPE      H3R            18.8937890924      -20.5255756580       11.0691919562  MEMB      42              0.0000000000
      5051        42  PMPE      H3S            18.9318902245      -22.1440845293       11.6747991239  MEMB      42              0.0000000000
      5052        42  PMPE      C24            20.3803980890      -22.2991714819       11.0810995213  MEMB      42              0.0000000000
      5053        42  PMPE      H4R            20.6362072795      -23.0177146012       11.8495471277  MEMB      42              0.0000000000
      5054        42  PMPE      H4S            21.0748157700      -21.6237618119       10.6338103244  MEMB      42              0.0000000000
      5055        42  PMPE      C25            19.8268256148      -23.1901990316       10.0189389573  MEMB      42              0.0000000000
      5056        42  PMPE      H5R            19.1349155229      -23.8504004070       10.6871787900  MEMB      42              0.0000000000
      5057        42  PMPE      H5S            20.0061172654      -24.1786735693        9.5509118241  MEMB      42              0.0000000000
      5058        42  PMPE      C26            19.2427463842      -22.2210373624        9.0091221360  MEMB      42              0.0000000000
      5059        42  PMPE      H6R            18.5320769547      -21.5410017096        9.5734527020  MEMB      42              0.0000000000
      5060        42  PMPE      H6S            18.8752681568      -23.0892701032        8.4044721947  MEMB      42              0.0000000000
      5061        42  PMPE      C27            19.3733856969      -21.0990654634        8.0758299783  MEMB      42              0.0000000000
      5062        42  PMPE      H7R            19.6602177263      -20.3268348889        8.7890696993  MEMB      42              0.0000000000
      5063        42  PMPE      H7S            18.5025806989      -20.6468726106        7.5093645583  MEMB      42              0.0000000000
      5064        42  PMPE      C28            20.1501397345      -21.7189073070        7.0353325419  MEMB      42              0.0000000000
      5065        42  PMPE      H8R            20.7470666570      -22.5032014078        7.5720118348  MEMB      42              0.0000000000
      5066        42  PMPE      H8S            20.6049009140      -20.7768220528        6.7331174920  MEMB      42              0.0000000000
      5067        42  PMPE      C29            19.4033908877      -22.3191866514        5.8806769335  MEMB      42              0.0000000000
      5068        42  PMPE      H9R            18.5575876454      -21.8355299972        5.3551342309  MEMB      42              0.0000000000
      5069        42  PMPE      C217           19.4218512827      -23.8207182468        5.8328678447  MEMB      42              0.0000000000
      5070        42  PMPE      H17R           18.7096684191      -24.0629177218        5.1351908090  MEMB      42              0.0000000000
      5071        42  PMPE      H17S           19.6886350052      -24.3295712792        6.7491173134  MEMB      42              0.0000000000
      5072        42  PMPE      C210           20.2780871004      -23.0514644784        4.9238139639  MEMB      42              0.0000000000
      5073        42  PMPE      H10R           19.9221499845      -23.0422037603        3.8765350744  MEMB      42              0.0000000000
      5074        42  PMPE      C211           21.7025140660      -23.2657506426        5.2026640852  MEMB      42              0.0000000000
      5075        42  PMPE      H11R           22.0160630833      -24.0260742756        4.4564608953  MEMB      42              0.0000000000
      5076        42  PMPE      H11S           21.8538126162      -23.7069121236        6.2129258173  MEMB      42              0.0000000000
      5077        42  PMPE      C212           22.4027792788      -21.9289400439        4.9834060461  MEMB      42              0.0000000000
      5078        42  PMPE      H12R           22.4060175391      -21.3341499730        5.9221996024  MEMB      42              0.0000000000
      5079        42  PMPE      H12S           21.8450864214      -21.3346777590        4.2211183344  MEMB      42              0.0000000000
      5080        42  PMPE      C213           23.8041965283      -22.2190005707        4.4690475219  MEMB      42              0.0000000000
      5081        42  PMPE      H13R           23.6923454303      -22.8275669403        3.5445546387  MEMB      42              0.0000000000
      5082        42  PMPE      H13S           24.2731401013      -22.8769776724        5.2367382717  MEMB      42              0.0000000000
      5083        42  PMPE      C214           24.7026355151      -20.9994763689        4.1965191265  MEMB      42              0.0000000000
      5084        42  PMPE      H14R           25.7107983450      -21.3681768665        3.8955807182  MEMB      42              0.0000000000
      5085        42  PMPE      H14S           24.8082323620      -20.4100674454        5.1304365506  MEMB      42              0.0000000000
      5086        42  PMPE      C215           24.2270173483      -20.0133457466        3.1246434177  MEMB      42              0.0000000000
      5087        42  PMPE      H15R           24.8190829790      -19.0735616005        3.2011580866  MEMB      42              0.0000000000
      5088        42  PMPE      H15S           23.1669409250      -19.7292205888        3.2945450233  MEMB      42              0.0000000000
      5089        42  PMPE      C216           24.3305093550      -20.5402103448        1.7122351186  MEMB      42              0.0000000000
      5090        42  PMPE      H16R           25.3546567354      -20.7997100083        1.3758386991  MEMB      42              0.0000000000
      5091        42  PMPE      H16S           23.6782143124      -21.4398823171        1.6298320546  MEMB      42              0.0000000000
      5092        42  PMPE      H16T           23.9501594533      -19.7492948592        1.0292449583  MEMB      42              0.0000000000
      5093        42  PMPE      C33            19.0093061946      -15.5870857392       10.4316748024  MEMB      42              0.0000000000
      5094        42  PMPE      H3X            20.0814900177      -15.3492271130       10.6334112947  MEMB      42              0.0000000000
      5095        42  PMPE      H3Y            18.4614464576      -14.6362784239       10.4035700394  MEMB      42              0.0000000000
      5096        42  PMPE      C34            18.9243247670      -16.3005410772        9.0986520718  MEMB      42              0.0000000000
      5097        42  PMPE      H4X            19.5192633946      -15.7305374153        8.3547480201  MEMB      42              0.0000000000
      5098        42  PMPE      H4Y            17.8511486911      -16.2432263348        8.8067824731  MEMB      42              0.0000000000
      5099        42  PMPE      C35            19.3914299468      -17.7719329571        9.0851131534  MEMB      42              0.0000000000
      5100        42  PMPE      H5X            19.3269530500      -18.0931257245        8.0267263366  MEMB      42              0.0000000000
      5101        42  PMPE      H5Y            18.6633094796      -18.4060996345        9.6378457062  MEMB      42              0.0000000000
      5102        42  PMPE      C36            20.8021963651      -18.0907242857        9.6535362001  MEMB      42              0.0000000000
      5103        42  PMPE      H6X            20.9012062383      -19.1899456144        9.7897932234  MEMB      42              0.0000000000
      5104        42  PMPE      H6Y            20.8953070002      -17.6391279477       10.6646577015  MEMB      42              0.0000000000
      5105        42  PMPE      C37            21.9561282522      -17.5356315254        8.8000248768  MEMB      42              0.0000000000
      5106        42  PMPE      H7X            22.7789926604      -17.1370831265        9.4379603216  MEMB      42              0.0000000000
      5107        42  PMPE      H7Y            21.5071119382      -16.6596571827        8.2934079280  MEMB      42              0.0000000000
      5108        42  PMPE      C38            22.6522240938      -18.5331686714        7.8488128025  MEMB      42              0.0000000000
      5109        42  PMPE      H8X            21.9319043974      -19.1424763126        7.2637282917  MEMB      42              0.0000000000
      5110        42  PMPE      H8Y            23.1973109362      -19.2675846031        8.4817699212  MEMB      42              0.0000000000
      5111        42  PMPE      C39            23.6639395332      -17.8501261354        6.8934403508  MEMB      42              0.0000000000
      5112        42  PMPE      H9X            24.0822174412      -18.6076732243        6.1898118639  MEMB      42              0.0000000000
      5113        42  PMPE      H9Y            24.4881876479      -17.4087772854        7.4836316466  MEMB      42              0.0000000000
      5114        42  PMPE      C310           23.0695516749      -16.7670478524        6.0052056045  MEMB      42              0.0000000000
      5115        42  PMPE      H10X           23.7972997848      -16.3225120745        5.2901335269  MEMB      42              0.0000000000
      5116        42  PMPE      H10Y           22.5890576042      -15.9588255633        6.5865162576  MEMB      42              0.0000000000
      5117        42  PMPE      C311           22.0122773776      -17.4237844707        5.1999692929  MEMB      42              0.0000000000
      5118        42  PMPE      H11X           21.2268732252      -17.8508508493        5.8692944084  MEMB      42              0.0000000000
      5119        42  PMPE      H11Y           22.4120468977      -18.1823369254        4.4967270207  MEMB      42              0.0000000000
      5120        42  PMPE      C312           21.2505559514      -16.5017429811        4.3875200191  MEMB      42              0.0000000000
      5121        42  PMPE      H12X           21.9205416794      -16.0535868630        3.6118665771  MEMB      42              0.0000000000
      5122        42  PMPE      H12Y           20.9697941689      -15.6072966009        4.9846566721  MEMB      42              0.0000000000
      5123        42  PMPE      C313           20.0334758624      -17.4607684426        4.0825380614  MEMB      42              0.0000000000
      5124        42  PMPE      H13X           19.4280153478      -16.6576697027        3.8100090188  MEMB      42              0.0000000000
      5125        42  PMPE      H13Y           19.2329010099      -17.5254776688        4.8117322681  MEMB      42              0.0000000000
      5126        42  PMPE      C314           20.1126383970      -18.6809929199        2.9987077910  MEMB      42              0.0000000000
      5127        42  PMPE      H14X           20.3370024237      -19.5850239187        3.5402889794  MEMB      42              0.0000000000
      5128        42  PMPE      H14Y           21.0875113884      -18.5114367935        2.4451121546  MEMB      42              0.0000000000
      5129        42  PMPE      C315           18.8842036958      -18.9551028923        1.9392749614  MEMB      42              0.0000000000
      5130        42  PMPE      H15X           19.1165585098      -19.5876098418        1.0568169999  MEMB      42              0.0000000000
      5131        42  PMPE      H15Y           18.6175972255      -18.2418061465        1.1256565030  MEMB      42              0.0000000000
      5132        42  PMPE      C316           17.5191186268      -19.0088079862        2.6216779155  MEMB      42              0.0000000000
      5133        42  PMPE      H16X           16.7314197136      -19.5042533357        2.0232687807  MEMB      42              0.0000000000
      5134        42  PMPE      H16Y           17.0588389428      -18.0335104312        2.8342851430  MEMB      42              0.0000000000
      5135        42  PMPE      H16Z           17.6849818563      -19.3465504039        3.6508064469  MEMB      42              0.0000000000
      5136        43  QMPE      N              28.2765873155       -7.9870086305       18.8244695405  MEMB      43              0.0000000000
      5137        43  QMPE      HN1            28.9826838412       -7.4364648343       18.2931481927  MEMB      43              0.0000000000
      5138        43  QMPE      HN2            28.6369032760       -8.9327419036       19.0440108912  MEMB      43              0.0000000000
      5139        43  QMPE      HN3            27.3829129307       -8.0425083920       18.2851534948  MEMB      43              0.0000000000
      5140        43  QMPE      C12            27.9846970246       -7.2184406317       20.0803745940  MEMB      43              0.0000000000
      5141        43  QMPE      H12A           28.9338077443       -6.7652950692       20.4316967999  MEMB      43              0.0000000000
      5142        43  QMPE      H12B           27.5997493345       -7.9603900025       20.8198890457  MEMB      43              0.0000000000
      5143        43  QMPE      C11            26.9391278036       -6.1038361847       19.8661394416  MEMB      43              0.0000000000
      5144        43  QMPE      H11A           26.8809968111       -5.4820039289       20.7823398709  MEMB      43              0.0000000000
      5145        43  QMPE      H11B           25.9578308640       -6.5969035200       19.7194260860  MEMB      43              0.0000000000
      5146        43  QMPE      P              27.9671278863       -3.9826891809       18.6695373175  MEMB      43              0.0000000000
      5147        43  QMPE      O13            28.3220076945       -3.4834888411       20.0086992243  MEMB      43              0.0000000000
      5148        43  QMPE      O14            27.4703339649       -3.0196266517       17.6724718045  MEMB      43              0.0000000000
      5149        43  QMPE      O11            29.1691744976       -4.7613585180       18.1086809729  MEMB      43              0.0000000000
      5150        43  QMPE      O12            27.1323899176       -5.2929525723       18.7223993766  MEMB      43              0.0000000000
      5151        43  QMPE      C1             30.1417529047       -4.0037391287       17.4936534883  MEMB      43              0.0000000000
      5152        43  QMPE      HA             31.0369659442       -4.2977084670       18.0732413793  MEMB      43              0.0000000000
      5153        43  QMPE      HB             30.1047045926       -2.8855862020       17.6428540736  MEMB      43              0.0000000000
      5154        43  QMPE      C2             30.2789996890       -4.3764018675       15.9763802293  MEMB      43              0.0000000000
      5155        43  QMPE      HS             31.1314072978       -3.9269505094       15.4439247825  MEMB      43              0.0000000000
      5156        43  QMPE      O21            29.1309455006       -3.9857462188       15.2315144425  MEMB      43              0.0000000000
      5157        43  QMPE      C21            29.3244622145       -2.8716854109       14.5114110755  MEMB      43              0.0000000000
      5158        43  QMPE      O22            30.3248223327       -2.2174424294       14.3712090114  MEMB      43              0.0000000000
      5159        43  QMPE      C22            28.1928607815       -2.6438153702       13.6213164606  MEMB      43              0.0000000000
      5160        43  QMPE      H2R            27.2909595673       -2.7260489058       14.2546179461  MEMB      43              0.0000000000
      5161        43  QMPE      H2S            28.3166048361       -3.5021274280       12.9199579596  MEMB      43              0.0000000000
      5162        43  QMPE      C3             30.5740498299       -5.8980387726       15.9526914726  MEMB      43              0.0000000000
      5163        43  QMPE      HX             29.9777333147       -6.4421973546       16.6845747361  MEMB      43              0.0000000000
      5164        43  QMPE      HY             31.6272624727       -6.0534382103       16.3354568526  MEMB      43              0.0000000000
      5165        43  QMPE      O31            30.5250483919       -6.3798780732       14.5992207989  MEMB      43              0.0000000000
      5166        43  QMPE      C31            29.4518383653       -6.9356442679       14.2050151789  MEMB      43              0.0000000000
      5167        43  QMPE      O32            28.4784526172       -7.1795677228       14.9072569747  MEMB      43              0.0000000000
      5168        43  QMPE      C32            29.6541513498       -7.3352190676       12.7221252507  MEMB      43              0.0000000000
      5169        43  QMPE      H2X            30.5186031524       -8.0321937017       12.6925655139  MEMB      43              0.0000000000
      5170        43  QMPE      H2Y            28.7390974026       -7.8732670498       12.4152234428  MEMB      43              0.0000000000
      5171        43  QMPE      C23            28.3274695256       -1.3117317605       12.8454383520  MEMB      43              0.0000000000
      5172        43  QMPE      H3R            29.3787463039       -1.0612054852       12.5502600810  MEMB      43              0.0000000000
      5173        43  QMPE      H3S            27.9868953887       -0.4424113262       13.4468351779  MEMB      43              0.0000000000
      5174        43  QMPE      C24            27.5950699117       -1.4647100256       11.5276390108  MEMB      43              0.0000000000
      5175        43  QMPE      H4R            28.1028780675       -2.2715064783       10.9504728714  MEMB      43              0.0000000000
      5176        43  QMPE      H4S            27.7216664041       -0.5575904191       10.9199941648  MEMB      43              0.0000000000
      5177        43  QMPE      C25            26.1114516388       -1.8091935199       11.6342120911  MEMB      43              0.0000000000
      5178        43  QMPE      H5R            25.5542971083       -0.8718551930       11.8542008275  MEMB      43              0.0000000000
      5179        43  QMPE      H5S            25.8487536710       -2.5288642210       12.4414538530  MEMB      43              0.0000000000
      5180        43  QMPE      C26            25.7246271573       -2.4531678060       10.3092048238  MEMB      43              0.0000000000
      5181        43  QMPE      H6R            26.1680149091       -3.4591101291       10.2219892614  MEMB      43              0.0000000000
      5182        43  QMPE      H6S            26.1096288592       -1.8271024819        9.4671783266  MEMB      43              0.0000000000
      5183        43  QMPE      C27            24.2505229976       -2.4848189210       10.0681350933  MEMB      43              0.0000000000
      5184        43  QMPE      H7R            24.1121476389       -1.3948596999       10.0721360247  MEMB      43              0.0000000000
      5185        43  QMPE      H7S            23.6000285300       -2.9010476833       10.8722293703  MEMB      43              0.0000000000
      5186        43  QMPE      C28            23.8838351444       -3.0869876624        8.7109106747  MEMB      43              0.0000000000
      5187        43  QMPE      H8R            24.5478553719       -2.7155826035        7.9042962330  MEMB      43              0.0000000000
      5188        43  QMPE      H8S            22.8541340448       -2.8203529428        8.3988665501  MEMB      43              0.0000000000
      5189        43  QMPE      C29            23.9645331618       -4.5723593990        8.9525147451  MEMB      43              0.0000000000
      5190        43  QMPE      H9R            23.5641489612       -4.9388305675        9.9142711700  MEMB      43              0.0000000000
      5191        43  QMPE      C217           25.3121328496       -5.1959395282        8.6021482827  MEMB      43              0.0000000000
      5192        43  QMPE      H17R           25.9778630947       -4.5131732275        8.0910516550  MEMB      43              0.0000000000
      5193        43  QMPE      H17S           25.6278732958       -6.0567897926        9.1712641799  MEMB      43              0.0000000000
      5194        43  QMPE      C210           24.0443632086       -5.5437064211        7.8236051660  MEMB      43              0.0000000000
      5195        43  QMPE      H10R           23.6394208703       -6.5362329287        8.0877323994  MEMB      43              0.0000000000
      5196        43  QMPE      C211           24.1414523749       -5.1383005585        6.3453124472  MEMB      43              0.0000000000
      5197        43  QMPE      H11R           25.1243729456       -4.6573493761        6.1645886738  MEMB      43              0.0000000000
      5198        43  QMPE      H11S           24.1214095182       -6.0806506716        5.7608160059  MEMB      43              0.0000000000
      5199        43  QMPE      C212           23.0433849723       -4.2143312361        5.7834608792  MEMB      43              0.0000000000
      5200        43  QMPE      H12R           23.2047125783       -3.1735569405        6.1256858611  MEMB      43              0.0000000000
      5201        43  QMPE      H12S           22.0530479324       -4.5427546690        6.1704045942  MEMB      43              0.0000000000
      5202        43  QMPE      C213           22.9193120407       -4.2013126226        4.2457712703  MEMB      43              0.0000000000
      5203        43  QMPE      H13R           21.9704073862       -3.7005548290        3.9663485609  MEMB      43              0.0000000000
      5204        43  QMPE      H13S           22.7777156816       -5.2539106687        3.9119875028  MEMB      43              0.0000000000
      5205        43  QMPE      C214           24.0594800549       -3.5367975137        3.4223571728  MEMB      43              0.0000000000
      5206        43  QMPE      H14R           23.7476697058       -3.7584245684        2.3746870546  MEMB      43              0.0000000000
      5207        43  QMPE      H14S           25.0195140645       -4.0575425008        3.5957273365  MEMB      43              0.0000000000
      5208        43  QMPE      C215           24.3850588030       -2.0139452699        3.6443201962  MEMB      43              0.0000000000
      5209        43  QMPE      H15R           24.6926344871       -1.8798353222        4.6815443010  MEMB      43              0.0000000000
      5210        43  QMPE      H15S           23.4371230396       -1.4588798375        3.5684295458  MEMB      43              0.0000000000
      5211        43  QMPE      C216           25.5856269647       -1.4173146735        2.8306411550  MEMB      43              0.0000000000
      5212        43  QMPE      H16R           26.1461102403       -2.2329374794        2.3216381871  MEMB      43              0.0000000000
      5213        43  QMPE      H16S           26.0412953982       -0.4241633228        2.8890690824  MEMB      43              0.0000000000
      5214        43  QMPE      H16T           25.1788488084       -0.8471467894        2.0093755030  MEMB      43              0.0000000000
      5215        43  QMPE      C33            29.8758795161       -6.1614282505       11.7262611176  MEMB      43              0.0000000000
      5216        43  QMPE      H3X            30.8795528408       -5.7057974762       11.8805236847  MEMB      43              0.0000000000
      5217        43  QMPE      H3Y            29.0970033417       -5.3882723111       11.9207752053  MEMB      43              0.0000000000
      5218        43  QMPE      C34            29.7246501527       -6.5660657376       10.2484403927  MEMB      43              0.0000000000
      5219        43  QMPE      H4X            28.7963176237       -7.1682722614       10.1370027446  MEMB      43              0.0000000000
      5220        43  QMPE      H4Y            30.5709866374       -7.2110822490        9.9231552659  MEMB      43              0.0000000000
      5221        43  QMPE      C35            29.5402651570       -5.3536102572        9.3222453628  MEMB      43              0.0000000000
      5222        43  QMPE      H5X            30.5084482533       -4.8242366093        9.1808033492  MEMB      43              0.0000000000
      5223        43  QMPE      H5Y            28.8472793409       -4.6319439315        9.8147646336  MEMB      43              0.0000000000
      5224        43  QMPE      C36            28.9288547140       -5.7626613027        7.9738337975  MEMB      43              0.0000000000
      5225        43  QMPE      H6X            27.8965474026       -6.1523996407        8.1364363194  MEMB      43              0.0000000000
      5226        43  QMPE      H6Y            29.5520041811       -6.5552580110        7.5011070166  MEMB      43              0.0000000000
      5227        43  QMPE      C37            28.8931458841       -4.6185371352        6.9678293252  MEMB      43              0.0000000000
      5228        43  QMPE      H7X            28.2046864157       -3.8249958923        7.3340805969  MEMB      43              0.0000000000
      5229        43  QMPE      H7Y            29.9214466403       -4.1951722768        6.9059840251  MEMB      43              0.0000000000
      5230        43  QMPE      C38            28.5268206200       -5.0803383788        5.5527580299  MEMB      43              0.0000000000
      5231        43  QMPE      H8X            29.1487116246       -5.9636756908        5.2797245728  MEMB      43              0.0000000000
      5232        43  QMPE      H8Y            27.4644499840       -5.4081145523        5.5201574864  MEMB      43              0.0000000000
      5233        43  QMPE      C39            28.7471482712       -3.9389134946        4.5532323537  MEMB      43              0.0000000000
      5234        43  QMPE      H9X            29.8279199844       -3.6886882167        4.4682379479  MEMB      43              0.0000000000
      5235        43  QMPE      H9Y            28.2314306491       -3.0364829280        4.9550182339  MEMB      43              0.0000000000
      5236        43  QMPE      C310           28.2287973950       -4.2239146783        3.1458501971  MEMB      43              0.0000000000
      5237        43  QMPE      H10X           28.3463448280       -3.2877372007        2.5529355268  MEMB      43              0.0000000000
      5238        43  QMPE      H10Y           27.1440799004       -4.4777056192        3.1712939486  MEMB      43              0.0000000000
      5239        43  QMPE      C311           28.9573066508       -5.3687029569        2.4377926082  MEMB      43              0.0000000000
      5240        43  QMPE      H11X           28.9789951117       -6.2636964880        3.0917029750  MEMB      43              0.0000000000
      5241        43  QMPE      H11Y           29.9965135865       -5.0769634466        2.1723014787  MEMB      43              0.0000000000
      5242        43  QMPE      C312           28.1889516363       -5.7406929798        1.2018712560  MEMB      43              0.0000000000
      5243        43  QMPE      H12X           27.1694844458       -6.0595189458        1.5033782951  MEMB      43              0.0000000000
      5244        43  QMPE      H12Y           28.5494078170       -6.5630732616        0.5975266107  MEMB      43              0.0000000000
      5245        43  QMPE      C313           28.3476891941       -4.7081751146        0.1355766088  MEMB      43              0.0000000000
      5246        43  QMPE      H13X           28.0228636583       -3.6926449692        0.4258523257  MEMB      43              0.0000000000
      5247        43  QMPE      H13Y           29.3786031102       -4.7305104915       -0.2912477888  MEMB      43              0.0000000000
      5248        43  QMPE      C314           27.4117847135       -5.1081743042       -0.8959402933  MEMB      43              0.0000000000
      5249        43  QMPE      H14X           27.6281583056       -6.0860541503       -1.3218262444  MEMB      43              0.0000000000
      5250        43  QMPE      H14Y           27.4993850354       -4.3366272594       -1.6851866829  MEMB      43              0.0000000000
      5251        43  QMPE      C315           26.0184024284       -5.2443871156       -0.3467209322  MEMB      43              0.0000000000
      5252        43  QMPE      H15X           25.4072399558       -6.0950912779       -0.6898931609  MEMB      43              0.0000000000
      5253        43  QMPE      H15Y           25.6915800104       -4.6389410653        0.5002353367  MEMB      43              0.0000000000
      5254        43  QMPE      H15Z           25.6728629110       -4.5872676332       -1.0439570268  MEMB      43              0.0000000000
      5255        44  PMPE      N             -19.1903394960      -19.6747406679       20.2001668618  MEMB      44              0.0000000000
      5256        44  PMPE      HN1           -18.7350310028      -20.1316000607       19.3846306914  MEMB      44              0.0000000000
      5257        44  PMPE      HN2           -18.5016074320      -19.4752770657       20.9517017533  MEMB      44              0.0000000000
      5258        44  PMPE      HN3           -19.9701707640      -20.2673201826       20.5327858309  MEMB      44              0.0000000000
      5259        44  PMPE      C12           -19.7240553548      -18.3609685080       19.7372818918  MEMB      44              0.0000000000
      5260        44  PMPE      H12A          -19.5618457751      -18.2965211124       18.6420488844  MEMB      44              0.0000000000
      5261        44  PMPE      H12B          -19.0961862632      -17.5949446927       20.2433010809  MEMB      44              0.0000000000
      5262        44  PMPE      C11           -21.2213819998      -18.2096683091       20.0718390593  MEMB      44              0.0000000000
      5263        44  PMPE      H11A          -21.6127627729      -17.3179651884       19.5218345341  MEMB      44              0.0000000000
      5264        44  PMPE      H11B          -21.2850719763      -17.9713611461       21.1585571619  MEMB      44              0.0000000000
      5265        44  PMPE      P             -22.5452127122      -19.7692654739       18.3626731808  MEMB      44              0.0000000000
      5266        44  PMPE      O13           -22.4632685203      -18.5545461222       17.5309505748  MEMB      44              0.0000000000
      5267        44  PMPE      O14           -23.8355599233      -20.4500056927       18.4810967166  MEMB      44              0.0000000000
      5268        44  PMPE      O11           -21.3663132263      -20.7510881930       17.9572397040  MEMB      44              0.0000000000
      5269        44  PMPE      O12           -21.9901313595      -19.3944004599       19.8124523167  MEMB      44              0.0000000000
      5270        44  PMPE      C1            -21.2929116791      -22.1069104494       18.3845740839  MEMB      44              0.0000000000
      5271        44  PMPE      HA            -22.2953440073      -22.5480215981       18.6280045170  MEMB      44              0.0000000000
      5272        44  PMPE      HB            -20.7010390056      -22.1792669460       19.3167289933  MEMB      44              0.0000000000
      5273        44  PMPE      C2            -20.6058620724      -22.9992198214       17.2979129821  MEMB      44              0.0000000000
      5274        44  PMPE      HS            -19.9826604373      -23.7623422220       17.8105338163  MEMB      44              0.0000000000
      5275        44  PMPE      O21           -19.7301136719      -22.3011791419       16.4231983625  MEMB      44              0.0000000000
      5276        44  PMPE      C21           -18.6434075460      -21.8475175568       17.0303787897  MEMB      44              0.0000000000
      5277        44  PMPE      O22           -18.2253142515      -22.2307859562       18.1167990649  MEMB      44              0.0000000000
      5278        44  PMPE      C22           -18.0090530549      -20.7638146378       16.1649918757  MEMB      44              0.0000000000
      5279        44  PMPE      H2R           -17.0936329168      -20.3813699558       16.6826784569  MEMB      44              0.0000000000
      5280        44  PMPE      H2S           -18.7292761101      -20.0404094237       15.7831728111  MEMB      44              0.0000000000
      5281        44  PMPE      C3            -21.7277689725      -23.6977461963       16.4759136173  MEMB      44              0.0000000000
      5282        44  PMPE      HX            -22.4075353504      -24.2391889161       17.1410128374  MEMB      44              0.0000000000
      5283        44  PMPE      HY            -21.2829895268      -24.4340114957       15.7608114639  MEMB      44              0.0000000000
      5284        44  PMPE      O31           -22.6371268037      -22.7658701510       15.9380361828  MEMB      44              0.0000000000
      5285        44  PMPE      C31           -22.2514975055      -22.2936968267       14.7945720705  MEMB      44              0.0000000000
      5286        44  PMPE      O32           -21.4420060831      -22.8321233327       14.0479696826  MEMB      44              0.0000000000
      5287        44  PMPE      C32           -22.9776516159      -20.9925149110       14.5254976920  MEMB      44              0.0000000000
      5288        44  PMPE      H2X           -22.6848240814      -20.2374155195       15.2649275196  MEMB      44              0.0000000000
      5289        44  PMPE      H2Y           -24.0418500880      -21.0541499477       14.7338384649  MEMB      44              0.0000000000
      5290        44  PMPE      C23           -17.5808279887      -21.3633164357       14.8830488073  MEMB      44              0.0000000000
      5291        44  PMPE      H3R           -18.3265961646      -22.0971334506       14.4527625364  MEMB      44              0.0000000000
      5292        44  PMPE      H3S           -16.6778840595      -21.7332585143       15.4472880787  MEMB      44              0.0000000000
      5293        44  PMPE      C24           -16.8857061420      -20.7481494868       13.7268898360  MEMB      44              0.0000000000
      5294        44  PMPE      H4R           -15.8234521138      -21.0812606161       13.5430868401  MEMB      44              0.0000000000
      5295        44  PMPE      H4S           -16.8136263838      -19.6937365151       14.0425417720  MEMB      44              0.0000000000
      5296        44  PMPE      C25           -17.7971222475      -21.0534124806       12.5426598982  MEMB      44              0.0000000000
      5297        44  PMPE      H5R           -18.8624764574      -21.2351637791       12.6872497837  MEMB      44              0.0000000000
      5298        44  PMPE      H5S           -17.5192245979      -21.7456196018       11.7235413904  MEMB      44              0.0000000000
      5299        44  PMPE      C26           -17.6527763349      -19.9119381875       11.7671514829  MEMB      44              0.0000000000
      5300        44  PMPE      H6R           -16.6175194353      -20.2341149468       11.4560716458  MEMB      44              0.0000000000
      5301        44  PMPE      H6S           -17.4677368540      -18.9512097466       12.2649391880  MEMB      44              0.0000000000
      5302        44  PMPE      C27           -18.6420952325      -19.7646979271       10.6151358690  MEMB      44              0.0000000000
      5303        44  PMPE      H7R           -18.5340718469      -18.7526484200       10.2098899747  MEMB      44              0.0000000000
      5304        44  PMPE      H7S           -19.6637141171      -19.5540299988       10.8746820606  MEMB      44              0.0000000000
      5305        44  PMPE      C28           -18.4315455300      -20.7996282094        9.5414263627  MEMB      44              0.0000000000
      5306        44  PMPE      H8R           -18.9498061225      -20.5387993571        8.6069151035  MEMB      44              0.0000000000
      5307        44  PMPE      H8S           -18.8765569207      -21.7131195802        9.9179855082  MEMB      44              0.0000000000
      5308        44  PMPE      C29           -17.0294139175      -21.1887142263        9.2963885554  MEMB      44              0.0000000000
      5309        44  PMPE      H9R           -16.2259277034      -21.5871749044        9.9841222541  MEMB      44              0.0000000000
      5310        44  PMPE      C217          -16.2540124460      -20.6003601059        8.2015470799  MEMB      44              0.0000000000
      5311        44  PMPE      H17R          -15.1702393217      -20.4395263937        8.4626360811  MEMB      44              0.0000000000
      5312        44  PMPE      H17S          -16.8150142106      -20.0483269161        7.5838504533  MEMB      44              0.0000000000
      5313        44  PMPE      C210          -17.0099415364      -21.7469626708        7.9990029338  MEMB      44              0.0000000000
      5314        44  PMPE      H10R          -16.0149637509      -22.0671146544        8.0406020175  MEMB      44              0.0000000000
      5315        44  PMPE      C211          -18.0713825792      -21.7018875339        6.7771116046  MEMB      44              0.0000000000
      5316        44  PMPE      H11R          -17.6609966820      -21.9286699057        5.7705303064  MEMB      44              0.0000000000
      5317        44  PMPE      H11S          -18.6076926468      -20.7672822757        6.5907130913  MEMB      44              0.0000000000
      5318        44  PMPE      C212          -18.8942324606      -22.8835816203        6.7170854771  MEMB      44              0.0000000000
      5319        44  PMPE      H12R          -19.1770778695      -22.8331080152        7.7550951171  MEMB      44              0.0000000000
      5320        44  PMPE      H12S          -18.2439721266      -23.6947516460        6.4007692032  MEMB      44              0.0000000000
      5321        44  PMPE      C213          -19.9302094186      -22.9694642588        5.6463242508  MEMB      44              0.0000000000
      5322        44  PMPE      H13R          -20.4427462201      -21.9761158840        5.5918072020  MEMB      44              0.0000000000
      5323        44  PMPE      H13S          -20.4594526909      -23.8830258122        5.8942335339  MEMB      44              0.0000000000
      5324        44  PMPE      C214          -19.4086954166      -23.3689066291        4.2939948752  MEMB      44              0.0000000000
      5325        44  PMPE      H14R          -18.8219543921      -22.5275561639        4.5167952317  MEMB      44              0.0000000000
      5326        44  PMPE      H14S          -20.0705931166      -23.1882109307        3.4281467822  MEMB      44              0.0000000000
      5327        44  PMPE      C215          -18.4580373296      -24.5164379440        4.0732363035  MEMB      44              0.0000000000
      5328        44  PMPE      H15R          -19.1532646688      -25.2959135758        3.9437605729  MEMB      44              0.0000000000
      5329        44  PMPE      H15S          -17.7015488586      -24.6177407629        4.8564192623  MEMB      44              0.0000000000
      5330        44  PMPE      C216          -17.6125811635      -24.6644122643        2.9073602458  MEMB      44              0.0000000000
      5331        44  PMPE      H16R          -18.0479834362      -24.5412413418        1.8886286106  MEMB      44              0.0000000000
      5332        44  PMPE      H16S          -17.0699767819      -23.7437391554        3.2827698188  MEMB      44              0.0000000000
      5333        44  PMPE      H16T          -16.8076612194      -25.3680996341        2.7275343939  MEMB      44              0.0000000000
      5334        44  PMPE      C33           -22.8616943630      -20.6215124218       13.0463303714  MEMB      44              0.0000000000
      5335        44  PMPE      H3X           -23.0251060998      -21.4556087956       12.3664679546  MEMB      44              0.0000000000
      5336        44  PMPE      H3Y           -21.8217591770      -20.3477795319       12.7960338517  MEMB      44              0.0000000000
      5337        44  PMPE      C34           -23.8692858668      -19.5783330284       12.6067052111  MEMB      44              0.0000000000
      5338        44  PMPE      H4X           -24.8103291352      -19.4939252565       13.2048017235  MEMB      44              0.0000000000
      5339        44  PMPE      H4Y           -24.2259040819      -19.8141304707       11.5710395944  MEMB      44              0.0000000000
      5340        44  PMPE      C35           -23.0183475084      -18.3454627769       12.6907760200  MEMB      44              0.0000000000
      5341        44  PMPE      H5X           -22.0859094260      -18.4816350316       12.1370635173  MEMB      44              0.0000000000
      5342        44  PMPE      H5Y           -22.8292049325      -18.0853912453       13.7676245973  MEMB      44              0.0000000000
      5343        44  PMPE      C36           -23.6791540025      -17.2370868258       12.0192055259  MEMB      44              0.0000000000
      5344        44  PMPE      H6X           -24.0669856078      -16.9073069248       12.9848723830  MEMB      44              0.0000000000
      5345        44  PMPE      H6Y           -24.5408825788      -17.6320602576       11.4393825885  MEMB      44              0.0000000000
      5346        44  PMPE      C37           -22.8795816974      -16.0076619775       11.5176922822  MEMB      44              0.0000000000
      5347        44  PMPE      H7X           -22.4114270889      -15.4416673782       12.3296941428  MEMB      44              0.0000000000
      5348        44  PMPE      H7Y           -23.4698287244      -15.2123122062       10.9488744534  MEMB      44              0.0000000000
      5349        44  PMPE      C38           -21.9069214746      -16.3991532549       10.5989608623  MEMB      44              0.0000000000
      5350        44  PMPE      H8X           -21.2806590186      -17.2267701315       10.9089496756  MEMB      44              0.0000000000
      5351        44  PMPE      H8Y           -21.4244131029      -15.4318599868       10.2877021910  MEMB      44              0.0000000000
      5352        44  PMPE      C39           -22.6348521814      -17.0636347479        9.5703248155  MEMB      44              0.0000000000
      5353        44  PMPE      H9X           -23.1179741063      -16.0682352888        9.2533151986  MEMB      44              0.0000000000
      5354        44  PMPE      H9Y           -23.3488184346      -17.9291150585        9.6728781551  MEMB      44              0.0000000000
      5355        44  PMPE      C310          -21.6831417513      -17.5152229587        8.6402746316  MEMB      44              0.0000000000
      5356        44  PMPE      H10X          -20.8175018161      -16.8210697160        8.7919930944  MEMB      44              0.0000000000
      5357        44  PMPE      H10Y          -22.6109655645      -17.3589021931        8.0718848998  MEMB      44              0.0000000000
      5358        44  PMPE      C311          -21.3843905414      -18.8386857903        8.1834011149  MEMB      44              0.0000000000
      5359        44  PMPE      H11X          -22.2557062803      -19.5039320236        8.0916362292  MEMB      44              0.0000000000
      5360        44  PMPE      H11Y          -20.8336863113      -18.9608761987        9.1357130525  MEMB      44              0.0000000000
      5361        44  PMPE      C312          -20.4843232941      -18.8412721532        6.9330322360  MEMB      44              0.0000000000
      5362        44  PMPE      H12X          -20.0399346481      -19.8033924132        7.1537200508  MEMB      44              0.0000000000
      5363        44  PMPE      H12Y          -19.7315039545      -18.0140867684        6.9809322850  MEMB      44              0.0000000000
      5364        44  PMPE      C313          -21.0177741516      -18.9646736056        5.4819832734  MEMB      44              0.0000000000
      5365        44  PMPE      H13X          -21.4925817822      -18.0705557451        5.0725578272  MEMB      44              0.0000000000
      5366        44  PMPE      H13Y          -21.7255551423      -19.7701224890        5.2367996606  MEMB      44              0.0000000000
      5367        44  PMPE      C314          -19.9353276981      -18.8557806888        4.4793257433  MEMB      44              0.0000000000
      5368        44  PMPE      H14X          -19.4566227154      -19.8212080658        4.4366871406  MEMB      44              0.0000000000
      5369        44  PMPE      H14Y          -19.2012488618      -18.0772416221        4.7640216139  MEMB      44              0.0000000000
      5370        44  PMPE      C315          -20.4890189522      -18.2653144421        3.2398032892  MEMB      44              0.0000000000
      5371        44  PMPE      H15X          -20.7349711237      -17.1642955687        3.4045741014  MEMB      44              0.0000000000
      5372        44  PMPE      H15Y          -21.2237641560      -18.7729929027        2.5833801456  MEMB      44              0.0000000000
      5373        44  PMPE      C316          -19.4266741176      -18.1114172649        2.3980958051  MEMB      44              0.0000000000
      5374        44  PMPE      H16X          -20.0189267992      -17.7692557102        1.5562818750  MEMB      44              0.0000000000
      5375        44  PMPE      H16Y          -18.7395051977      -18.8542408417        1.9587396255  MEMB      44              0.0000000000
      5376        44  PMPE      H16Z          -18.9869489106      -17.1315078569        2.5789682333  MEMB      44              0.0000000000
      5377        45  PMPE      N              25.5384837183       14.0881945091       20.5327298750  MEMB      45              0.0000000000
      5378        45  PMPE      HN1            25.5865562404       14.7649544596       19.7518605678  MEMB      45              0.0000000000
      5379        45  PMPE      HN2            25.0456334387       14.4454391876       21.3789423397  MEMB      45              0.0000000000
      5380        45  PMPE      HN3            26.5151355710       13.8153930158       20.7834907230  MEMB      45              0.0000000000
      5381        45  PMPE      C12            24.8202005649       12.8424361149       20.0683451675  MEMB      45              0.0000000000
      5382        45  PMPE      H12A           23.7551755256       13.0848512000       19.9067546108  MEMB      45              0.0000000000
      5383        45  PMPE      H12B           24.9096876680       12.0898328345       20.8648281238  MEMB      45              0.0000000000
      5384        45  PMPE      C11            25.4668253738       12.1946644386       18.8522662807  MEMB      45              0.0000000000
      5385        45  PMPE      H11A           25.7111452046       12.9679551632       18.0908388771  MEMB      45              0.0000000000
      5386        45  PMPE      H11B           24.7572956866       11.4854875578       18.3684972997  MEMB      45              0.0000000000
      5387        45  PMPE      P              27.9416150820       11.3703431416       18.5355986060  MEMB      45              0.0000000000
      5388        45  PMPE      O13            27.8383455205       10.4700887938       17.3875967223  MEMB      45              0.0000000000
      5389        45  PMPE      O14            29.0633121692       11.2162289948       19.4819789595  MEMB      45              0.0000000000
      5390        45  PMPE      O11            27.9718933476       12.7991343565       17.8834464135  MEMB      45              0.0000000000
      5391        45  PMPE      O12            26.5824593229       11.4580590004       19.3294710065  MEMB      45              0.0000000000
      5392        45  PMPE      C1             29.1661977064       13.5528942983       17.8109397805  MEMB      45              0.0000000000
      5393        45  PMPE      HA             29.9724620576       13.1743321816       18.4731628114  MEMB      45              0.0000000000
      5394        45  PMPE      HB             28.8690407843       14.5380976053       18.2016777887  MEMB      45              0.0000000000
      5395        45  PMPE      C2             29.8158129366       13.7171835634       16.3949418795  MEMB      45              0.0000000000
      5396        45  PMPE      HS             30.3068314838       14.7124398064       16.3941965052  MEMB      45              0.0000000000
      5397        45  PMPE      O21            28.8272180784       13.6398759321       15.3474991531  MEMB      45              0.0000000000
      5398        45  PMPE      C21            29.2413647752       13.9576807714       14.1331036024  MEMB      45              0.0000000000
      5399        45  PMPE      O22            30.1431582770       14.7244459287       13.8431677289  MEMB      45              0.0000000000
      5400        45  PMPE      C22            28.4730727985       13.0729459977       13.1522889468  MEMB      45              0.0000000000
      5401        45  PMPE      H2R            27.5692358874       12.6550542345       13.6452826940  MEMB      45              0.0000000000
      5402        45  PMPE      H2S            29.1165569278       12.2572550844       12.7847835244  MEMB      45              0.0000000000
      5403        45  PMPE      C3             30.9389264240       12.6457122740       16.1585513904  MEMB      45              0.0000000000
      5404        45  PMPE      HX             31.4025907845       12.2846494478       17.1068456530  MEMB      45              0.0000000000
      5405        45  PMPE      HY             31.7429333207       13.1541968688       15.5865531615  MEMB      45              0.0000000000
      5406        45  PMPE      O31            30.4634089485       11.5943581029       15.3250699955  MEMB      45              0.0000000000
      5407        45  PMPE      C31            30.6706079831       10.3776259301       15.6555794174  MEMB      45              0.0000000000
      5408        45  PMPE      O32            31.1768692091        9.8841583668       16.6507521598  MEMB      45              0.0000000000
      5409        45  PMPE      C32            30.2617095079        9.5695798935       14.4572321338  MEMB      45              0.0000000000
      5410        45  PMPE      H2X            29.1682940735        9.7273839758       14.3242601341  MEMB      45              0.0000000000
      5411        45  PMPE      H2Y            30.4761437635        8.5927195025       14.9128434028  MEMB      45              0.0000000000
      5412        45  PMPE      C23            27.9936536445       13.8338741403       11.9444443934  MEMB      45              0.0000000000
      5413        45  PMPE      H3R            28.8443172095       14.1467631297       11.2850812342  MEMB      45              0.0000000000
      5414        45  PMPE      H3S            27.4682405424       14.7173258238       12.3802122574  MEMB      45              0.0000000000
      5415        45  PMPE      C24            26.9708212725       13.0260350474       11.1628484438  MEMB      45              0.0000000000
      5416        45  PMPE      H4R            26.0439553355       12.9683350481       11.7726296327  MEMB      45              0.0000000000
      5417        45  PMPE      H4S            27.3865646034       12.0086592893       10.9883603257  MEMB      45              0.0000000000
      5418        45  PMPE      C25            26.6067203301       13.6716383432        9.8493102175  MEMB      45              0.0000000000
      5419        45  PMPE      H5R            27.5685463076       13.8892992971        9.3270435921  MEMB      45              0.0000000000
      5420        45  PMPE      H5S            26.0577575948       14.6209254462       10.0718544599  MEMB      45              0.0000000000
      5421        45  PMPE      C26            25.7943201261       12.7918907167        8.9137848355  MEMB      45              0.0000000000
      5422        45  PMPE      H6R            24.9513773322       12.3462370715        9.4854018959  MEMB      45              0.0000000000
      5423        45  PMPE      H6S            26.4781172301       11.9862859317        8.5687412107  MEMB      45              0.0000000000
      5424        45  PMPE      C27            25.2766481939       13.5953105220        7.7090132675  MEMB      45              0.0000000000
      5425        45  PMPE      H7R            26.1234364441       13.8643249930        7.0445603527  MEMB      45              0.0000000000
      5426        45  PMPE      H7S            24.8087686572       14.5194268985        8.1025351728  MEMB      45              0.0000000000
      5427        45  PMPE      C28            24.2484730759       12.9111783467        6.8247929937  MEMB      45              0.0000000000
      5428        45  PMPE      H8R            24.7068135483       11.9380787972        6.5094048189  MEMB      45              0.0000000000
      5429        45  PMPE      H8S            24.0538334913       13.4196799360        5.8773985506  MEMB      45              0.0000000000
      5430        45  PMPE      C29            22.8536596686       12.9281371977        7.4861651723  MEMB      45              0.0000000000
      5431        45  PMPE      H9R            22.6928316757       13.5400778795        8.3936993772  MEMB      45              0.0000000000
      5432        45  PMPE      C217           22.9780437841       11.6555824500        8.1147787116  MEMB      45              0.0000000000
      5433        45  PMPE      H17R           22.6446049586       11.7050615461        9.1290956029  MEMB      45              0.0000000000
      5434        45  PMPE      H17S           23.7770524841       10.9918344854        7.7763642075  MEMB      45              0.0000000000
      5435        45  PMPE      C210           21.8144287571       11.8590608429        7.1929295647  MEMB      45              0.0000000000
      5436        45  PMPE      H10R           20.8765947849       11.6455386773        7.7255894401  MEMB      45              0.0000000000
      5437        45  PMPE      C211           21.9476983937       11.2799274396        5.8537070467  MEMB      45              0.0000000000
      5438        45  PMPE      H11R           21.5557306866       10.2675224036        5.6551280985  MEMB      45              0.0000000000
      5439        45  PMPE      H11S           23.0103620508       11.2711115780        5.6840794525  MEMB      45              0.0000000000
      5440        45  PMPE      C212           21.1438615324       11.9322632688        4.8542723075  MEMB      45              0.0000000000
      5441        45  PMPE      H12R           21.6129674645       12.8979575231        4.7894451714  MEMB      45              0.0000000000
      5442        45  PMPE      H12S           20.2057320730       11.9550146253        5.4480237018  MEMB      45              0.0000000000
      5443        45  PMPE      C213           20.9377694744       11.1600754713        3.5264273305  MEMB      45              0.0000000000
      5444        45  PMPE      H13R           20.3973487465       11.7595065372        2.7838317884  MEMB      45              0.0000000000
      5445        45  PMPE      H13S           20.9526491604       10.0325817754        3.7098097941  MEMB      45              0.0000000000
      5446        45  PMPE      C214           21.8753185258       10.7916678681        2.4004340482  MEMB      45              0.0000000000
      5447        45  PMPE      H14R           22.2670542605        9.7647074144        2.2428293244  MEMB      45              0.0000000000
      5448        45  PMPE      H14S           22.2625130860       11.3748432249        3.2085735966  MEMB      45              0.0000000000
      5449        45  PMPE      C215           22.0617631492       11.2566204466        1.0379389098  MEMB      45              0.0000000000
      5450        45  PMPE      H15R           21.3822897344       10.6889413761        0.4343627520  MEMB      45              0.0000000000
      5451        45  PMPE      H15S           22.8815364530       10.6194420478        0.5907357434  MEMB      45              0.0000000000
      5452        45  PMPE      C216           22.2049062520       12.7624808231        0.8649108820  MEMB      45              0.0000000000
      5453        45  PMPE      H16R           23.1133059618       13.0137803918        1.3508139926  MEMB      45              0.0000000000
      5454        45  PMPE      H16S           22.7059454204       13.0139383284       -0.0843277288  MEMB      45              0.0000000000
      5455        45  PMPE      H16T           22.0162091942       13.4830554933        1.6701883539  MEMB      45              0.0000000000
      5456        45  PMPE      C33            31.0386137176        9.8005617969       13.1245557162  MEMB      45              0.0000000000
      5457        45  PMPE      H3X            32.1298665484        9.7128867888       13.3159719902  MEMB      45              0.0000000000
      5458        45  PMPE      H3Y            30.8116101931       10.8403037838       12.8148623696  MEMB      45              0.0000000000
      5459        45  PMPE      C34            30.6588744583        8.8537541187       11.9588646917  MEMB      45              0.0000000000
      5460        45  PMPE      H4X            29.5471750754        8.7439183047       11.9398455318  MEMB      45              0.0000000000
      5461        45  PMPE      H4Y            31.1302813999        7.8555455992       12.1024366118  MEMB      45              0.0000000000
      5462        45  PMPE      C35            31.0955392541        9.2406854874       10.5442295499  MEMB      45              0.0000000000
      5463        45  PMPE      H5X            31.1645871168        8.2970682577        9.9450060602  MEMB      45              0.0000000000
      5464        45  PMPE      H5Y            32.1015373361        9.7060277750       10.5824088388  MEMB      45              0.0000000000
      5465        45  PMPE      C36            30.0749151993       10.2201823196        9.9553240479  MEMB      45              0.0000000000
      5466        45  PMPE      H6X            30.1360142931       11.1277165688       10.5933698096  MEMB      45              0.0000000000
      5467        45  PMPE      H6Y            29.0465044815        9.8151792036       10.0837177896  MEMB      45              0.0000000000
      5468        45  PMPE      C37            30.2540669959       10.6206793774        8.4830922055  MEMB      45              0.0000000000
      5469        45  PMPE      H7X            29.3437337870       11.1766532263        8.1560764470  MEMB      45              0.0000000000
      5470        45  PMPE      H7Y            30.3516355330        9.7374477457        7.8173972513  MEMB      45              0.0000000000
      5471        45  PMPE      C38            31.4206734217       11.5667224456        8.2580468799  MEMB      45              0.0000000000
      5472        45  PMPE      H8X            32.3794651063       11.0049056119        8.1914146344  MEMB      45              0.0000000000
      5473        45  PMPE      H8Y            31.5122418504       12.2839715622        9.1092416924  MEMB      45              0.0000000000
      5474        45  PMPE      C39            31.2839851265       12.3895652745        6.9790529993  MEMB      45              0.0000000000
      5475        45  PMPE      H9X            32.2468514770       12.9220226457        7.0708418242  MEMB      45              0.0000000000
      5476        45  PMPE      H9Y            30.4589586268       13.1323292057        7.0124566024  MEMB      45              0.0000000000
      5477        45  PMPE      C310           31.2186875000       11.5954626680        5.6594549943  MEMB      45              0.0000000000
      5478        45  PMPE      H10X           30.3381842164       10.9192037099        5.6653212129  MEMB      45              0.0000000000
      5479        45  PMPE      H10Y           32.1420537112       10.9961732104        5.6224749141  MEMB      45              0.0000000000
      5480        45  PMPE      C311           31.1539135648       12.4718365228        4.3900400586  MEMB      45              0.0000000000
      5481        45  PMPE      H11X           32.0792122560       13.0756174283        4.3430866539  MEMB      45              0.0000000000
      5482        45  PMPE      H11Y           30.2370873110       13.0746310315        4.4799585437  MEMB      45              0.0000000000
      5483        45  PMPE      C312           31.1382684976       11.8620537982        2.9873966368  MEMB      45              0.0000000000
      5484        45  PMPE      H12X           32.0383504421       11.2447433476        2.9642809025  MEMB      45              0.0000000000
      5485        45  PMPE      H12Y           31.3744262700       12.6124899054        2.2117323446  MEMB      45              0.0000000000
      5486        45  PMPE      C313           29.8133105246       11.1791190642        2.6404764622  MEMB      45              0.0000000000
      5487        45  PMPE      H13X           29.0497133396       11.8754172103        3.0296235488  MEMB      45              0.0000000000
      5488        45  PMPE      H13Y           29.6254440861       10.2237055169        3.2048453218  MEMB      45              0.0000000000
      5489        45  PMPE      C314           29.5164722041       11.0629809701        1.1266089219  MEMB      45              0.0000000000
      5490        45  PMPE      H14X           29.8645759742       10.2722540132        0.4742253136  MEMB      45              0.0000000000
      5491        45  PMPE      H14Y           29.7227070397       11.8629784933        0.4663628721  MEMB      45              0.0000000000
      5492        45  PMPE      C315           28.3889635512       10.2840898157        0.9399480524  MEMB      45              0.0000000000
      5493        45  PMPE      H15X           28.5060519542        9.4459507559        1.6395172760  MEMB      45              0.0000000000
      5494        45  PMPE      H15Y           28.0839049912        9.9793051859       -0.1099978858  MEMB      45              0.0000000000
      5495        45  PMPE      C316           27.3933127540       10.9553816574        1.5202636528  MEMB      45              0.0000000000
      5496        45  PMPE      H16X           26.6082073690       10.2861365654        1.1372762596  MEMB      45              0.0000000000
      5497        45  PMPE      H16Y           27.2471807051       11.8946521086        0.9874080713  MEMB      45              0.0000000000
      5498        45  PMPE      H16Z           27.3036254169       10.9753603530        2.6365994782  MEMB      45              0.0000000000
      5499        46  PMPE      N               4.2142638432      -26.9891733793       17.8024655851  MEMB      46              0.0000000000
      5500        46  PMPE      HN1             3.3705140182      -26.8010163138       18.3843768326  MEMB      46              0.0000000000
      5501        46  PMPE      HN2             4.7919498856      -26.1287618096       17.7135445611  MEMB      46              0.0000000000
      5502        46  PMPE      HN3             3.8981479614      -27.2675937320       16.8553880177  MEMB      46              0.0000000000
      5503        46  PMPE      C12             5.0320014979      -28.0926464886       18.4601935703  MEMB      46              0.0000000000
      5504        46  PMPE      H12A            5.2863461248      -27.7132459540       19.4703552463  MEMB      46              0.0000000000
      5505        46  PMPE      H12B            5.9752022771      -28.1979005172       17.8821182702  MEMB      46              0.0000000000
      5506        46  PMPE      C11             4.3568628824      -29.5003323648       18.5720093888  MEMB      46              0.0000000000
      5507        46  PMPE      H11A            4.8899696402      -30.0362576098       19.3946399111  MEMB      46              0.0000000000
      5508        46  PMPE      H11B            4.5656153798      -30.0642577725       17.6344068034  MEMB      46              0.0000000000
      5509        46  PMPE      P               2.1290039284      -30.7043935548       19.4819991707  MEMB      46              0.0000000000
      5510        46  PMPE      O13             0.7575702091      -30.7958933233       18.9244301614  MEMB      46              0.0000000000
      5511        46  PMPE      O14             2.2133208511      -30.5980651699       20.9515817856  MEMB      46              0.0000000000
      5512        46  PMPE      O11             2.9807907318      -31.9986078456       19.0679985414  MEMB      46              0.0000000000
      5513        46  PMPE      O12             2.9450597726      -29.4653319554       18.8084786240  MEMB      46              0.0000000000
      5514        46  PMPE      C1              2.4770337807      -33.1227198418       18.3238861977  MEMB      46              0.0000000000
      5515        46  PMPE      HA              1.3796713464      -33.2798065412       18.4513306694  MEMB      46              0.0000000000
      5516        46  PMPE      HB              2.9780965201      -34.0382870025       18.7173233972  MEMB      46              0.0000000000
      5517        46  PMPE      C2              2.8271475113      -33.1200262858       16.7963530231  MEMB      46              0.0000000000
      5518        46  PMPE      HS              2.8368844832      -34.1770631658       16.4426306826  MEMB      46              0.0000000000
      5519        46  PMPE      O21             4.1081421126      -32.4862299827       16.5940037041  MEMB      46              0.0000000000
      5520        46  PMPE      C21             4.7861287346      -32.8360037288       15.5140055782  MEMB      46              0.0000000000
      5521        46  PMPE      O22             4.4809918150      -33.7047620073       14.7199192465  MEMB      46              0.0000000000
      5522        46  PMPE      C22             6.0656444999      -31.9963902250       15.5149819347  MEMB      46              0.0000000000
      5523        46  PMPE      H2R             6.6970666024      -32.4695626853       16.2808691222  MEMB      46              0.0000000000
      5524        46  PMPE      H2S             5.8254323195      -30.9798982545       15.8614366386  MEMB      46              0.0000000000
      5525        46  PMPE      C3              1.7321204127      -32.4196241634       15.9452008705  MEMB      46              0.0000000000
      5526        46  PMPE      HX              0.7671209926      -32.9582445260       16.0971651897  MEMB      46              0.0000000000
      5527        46  PMPE      HY              2.0366701946      -32.5415083979       14.8816497900  MEMB      46              0.0000000000
      5528        46  PMPE      O31             1.6142940659      -31.0232097737       16.2643978811  MEMB      46              0.0000000000
      5529        46  PMPE      C31             0.7594322772      -30.4174828828       15.4703811524  MEMB      46              0.0000000000
      5530        46  PMPE      O32            -0.0674156696      -30.9794418545       14.7685772784  MEMB      46              0.0000000000
      5531        46  PMPE      C32             0.9988808085      -28.9133712699       15.4626963265  MEMB      46              0.0000000000
      5532        46  PMPE      H2X             0.8130042920      -28.5835671833       16.5073296553  MEMB      46              0.0000000000
      5533        46  PMPE      H2Y             0.2466895436      -28.4744032850       14.7731185808  MEMB      46              0.0000000000
      5534        46  PMPE      C23             6.7458558575      -31.8528593551       14.1270630819  MEMB      46              0.0000000000
      5535        46  PMPE      H3R             6.0290945892      -31.3915622158       13.4298988001  MEMB      46              0.0000000000
      5536        46  PMPE      H3S             6.6812045514      -32.8068863438       13.6235154998  MEMB      46              0.0000000000
      5537        46  PMPE      C24             8.1323576482      -31.0962216075       14.0919604964  MEMB      46              0.0000000000
      5538        46  PMPE      H4R             9.0399348360      -31.3443194802       14.6365646005  MEMB      46              0.0000000000
      5539        46  PMPE      H4S             7.9091348269      -30.0659734565       14.3962844075  MEMB      46              0.0000000000
      5540        46  PMPE      C25             9.0900920589      -31.1935941522       12.9384973790  MEMB      46              0.0000000000
      5541        46  PMPE      H5R             9.4814571141      -32.2253259179       12.7322066302  MEMB      46              0.0000000000
      5542        46  PMPE      H5S            10.0769787653      -30.7163660886       13.0874050810  MEMB      46              0.0000000000
      5543        46  PMPE      C26             8.2968598754      -30.3835376754       11.9749241947  MEMB      46              0.0000000000
      5544        46  PMPE      H6R             7.8864609994      -29.4292176340       12.2777566708  MEMB      46              0.0000000000
      5545        46  PMPE      H6S             7.3985455543      -31.0489676269       11.9178259090  MEMB      46              0.0000000000
      5546        46  PMPE      C27             9.1658663319      -29.9788723329       10.7951561725  MEMB      46              0.0000000000
      5547        46  PMPE      H7R             9.6554884954      -31.0126413865       10.8209386752  MEMB      46              0.0000000000
      5548        46  PMPE      H7S            10.0439637779      -29.3925227525       11.0335908995  MEMB      46              0.0000000000
      5549        46  PMPE      C28             8.4613498076      -29.1981362252        9.4602992046  MEMB      46              0.0000000000
      5550        46  PMPE      H8R             8.1175232479      -28.2208267358        9.7056892946  MEMB      46              0.0000000000
      5551        46  PMPE      H8S             7.5025362928      -29.4999683160        9.9101769558  MEMB      46              0.0000000000
      5552        46  PMPE      C29             8.5367408979      -29.5058456346        7.6819869600  MEMB      46              0.0000000000
      5553        46  PMPE      H9R             8.6042714508      -30.4629370271        7.0997984047  MEMB      46              0.0000000000
      5554        46  PMPE      C217            9.1210642509      -28.7932780494        6.6874919424  MEMB      46              0.0000000000
      5555        46  PMPE      H17R            9.8523533113      -29.3055461826        6.0818097042  MEMB      46              0.0000000000
      5556        46  PMPE      H17S            9.4530002651      -28.2237348377        7.5256632211  MEMB      46              0.0000000000
      5557        46  PMPE      C210            7.7609637862      -29.4622751473        6.4410916585  MEMB      46              0.0000000000
      5558        46  PMPE      H10R            7.7999032950      -30.2007819152        5.5370611912  MEMB      46              0.0000000000
      5559        46  PMPE      C211            6.4972015395      -28.8985020917        6.8352811994  MEMB      46              0.0000000000
      5560        46  PMPE      H11R            6.7636748120      -28.1510404825        7.6175396215  MEMB      46              0.0000000000
      5561        46  PMPE      H11S            5.7814680582      -29.6153880263        7.2252185968  MEMB      46              0.0000000000
      5562        46  PMPE      C212            6.0130848345      -28.4153492139        5.5204687664  MEMB      46              0.0000000000
      5563        46  PMPE      H12R            5.8866718198      -29.1663850190        4.7375801288  MEMB      46              0.0000000000
      5564        46  PMPE      H12S            6.9910839463      -28.1977318696        5.1307153856  MEMB      46              0.0000000000
      5565        46  PMPE      C213            4.9350936405      -27.3425501514        5.7164811439  MEMB      46              0.0000000000
      5566        46  PMPE      H13R            5.1790089173      -26.4417336540        6.2802730193  MEMB      46              0.0000000000
      5567        46  PMPE      H13S            4.3120957460      -27.7904466546        6.5113980082  MEMB      46              0.0000000000
      5568        46  PMPE      C214            4.1071579628      -26.9092918844        4.4807676998  MEMB      46              0.0000000000
      5569        46  PMPE      H14R            3.3709565249      -26.1322924637        4.7309106707  MEMB      46              0.0000000000
      5570        46  PMPE      H14S            3.6766809114      -27.8842676804        4.1743579567  MEMB      46              0.0000000000
      5571        46  PMPE      C215            4.7211175134      -26.3932773366        3.1856972112  MEMB      46              0.0000000000
      5572        46  PMPE      H15R            5.3941753566      -27.2797289573        3.0656491750  MEMB      46              0.0000000000
      5573        46  PMPE      H15S            5.3273500677      -25.4473626100        3.1659131890  MEMB      46              0.0000000000
      5574        46  PMPE      C216            3.8131339324      -26.0229768060        2.0483887053  MEMB      46              0.0000000000
      5575        46  PMPE      H16R            4.3257057610      -25.4450456861        1.2647045395  MEMB      46              0.0000000000
      5576        46  PMPE      H16S            3.5117041317      -26.9097196835        1.4552407423  MEMB      46              0.0000000000
      5577        46  PMPE      H16T            3.3416084513      -25.0449035647        2.1383959995  MEMB      46              0.0000000000
      5578        46  PMPE      C33             2.4364541045      -28.5326745873       15.0104770568  MEMB      46              0.0000000000
      5579        46  PMPE      H3X             3.1713066773      -29.1829536450       15.5383004387  MEMB      46              0.0000000000
      5580        46  PMPE      H3Y             2.6318371632      -27.4894015625       15.3348630224  MEMB      46              0.0000000000
      5581        46  PMPE      C34             2.6973142945      -28.6309526475       13.4887236610  MEMB      46              0.0000000000
      5582        46  PMPE      H4X             3.7866399032      -28.4981612636       13.3010086895  MEMB      46              0.0000000000
      5583        46  PMPE      H4Y             2.1797306715      -27.8267764922       12.9211227831  MEMB      46              0.0000000000
      5584        46  PMPE      C35             2.2730705914      -29.9765139999       12.8955210696  MEMB      46              0.0000000000
      5585        46  PMPE      H5X             1.1634631095      -30.0110482282       12.7911384316  MEMB      46              0.0000000000
      5586        46  PMPE      H5Y             2.5944562224      -30.7847445519       13.5926476853  MEMB      46              0.0000000000
      5587        46  PMPE      C36             2.9329849814      -30.3194518116       11.5661845792  MEMB      46              0.0000000000
      5588        46  PMPE      H6X             4.0290752844      -30.3420407081       11.7589118452  MEMB      46              0.0000000000
      5589        46  PMPE      H6Y             2.7215668311      -29.5473983041       10.7975742764  MEMB      46              0.0000000000
      5590        46  PMPE      C37             2.4779816769      -31.7093683193       11.1061304941  MEMB      46              0.0000000000
      5591        46  PMPE      H7X             1.3909520951      -31.7041505236       10.8790519522  MEMB      46              0.0000000000
      5592        46  PMPE      H7Y             2.6295482220      -32.4137511818       11.9588050502  MEMB      46              0.0000000000
      5593        46  PMPE      C38             3.2574938472      -32.2533534347        9.9091887046  MEMB      46              0.0000000000
      5594        46  PMPE      H8X             3.0268890508      -33.3360372029        9.8036004871  MEMB      46              0.0000000000
      5595        46  PMPE      H8Y             4.3293990477      -32.1931755458       10.1608273675  MEMB      46              0.0000000000
      5596        46  PMPE      C39             3.0135402964      -31.5143624091        8.5808801247  MEMB      46              0.0000000000
      5597        46  PMPE      H9X             3.4347528006      -30.4886537230        8.6469041706  MEMB      46              0.0000000000
      5598        46  PMPE      H9Y             1.9246740269      -31.3877924722        8.3985542152  MEMB      46              0.0000000000
      5599        46  PMPE      C310            3.6956058564      -32.2404276025        7.4054683936  MEMB      46              0.0000000000
      5600        46  PMPE      H10X            3.2764214833      -33.2674820875        7.3357553955  MEMB      46              0.0000000000
      5601        46  PMPE      H10Y            4.7688039270      -32.3256755172        7.6520608745  MEMB      46              0.0000000000
      5602        46  PMPE      C311            3.5598935232      -31.5295960326        6.0420631443  MEMB      46              0.0000000000
      5603        46  PMPE      H11X            3.9333736790      -30.4861041030        6.1503106703  MEMB      46              0.0000000000
      5604        46  PMPE      H11Y            2.4727926961      -31.5128081135        5.8207829099  MEMB      46              0.0000000000
      5605        46  PMPE      C312            4.2547858184      -32.2518522011        4.8575149308  MEMB      46              0.0000000000
      5606        46  PMPE      H12X            3.9072445705      -33.3073768172        4.9070269594  MEMB      46              0.0000000000
      5607        46  PMPE      H12Y            5.3537755036      -32.2409143378        5.0325426794  MEMB      46              0.0000000000
      5608        46  PMPE      C313            3.9560104855      -31.7015728844        3.4293346354  MEMB      46              0.0000000000
      5609        46  PMPE      H13X            4.0887129897      -30.5976037764        3.4200248555  MEMB      46              0.0000000000
      5610        46  PMPE      H13Y            2.9059391247      -31.9159304422        3.1302042528  MEMB      46              0.0000000000
      5611        46  PMPE      C314            4.8599670598      -32.2636870332        2.3081783318  MEMB      46              0.0000000000
      5612        46  PMPE      H14X            4.5387546844      -33.3053118062        2.0765442940  MEMB      46              0.0000000000
      5613        46  PMPE      H14Y            5.8917547519      -32.3154818161        2.7000504466  MEMB      46              0.0000000000
      5614        46  PMPE      C315            4.8480994827      -31.3989481320        1.0237002667  MEMB      46              0.0000000000
      5615        46  PMPE      H15X            5.0490029316      -30.3325936010        1.2668755859  MEMB      46              0.0000000000
      5616        46  PMPE      H15Y            3.8278135048      -31.4784742920        0.5800146887  MEMB      46              0.0000000000
      5617        46  PMPE      C316            5.8217956958      -31.8393672916       -0.0632424018  MEMB      46              0.0000000000
      5618        46  PMPE      H16X            6.8741655025      -31.9052045729        0.2878089846  MEMB      46              0.0000000000
      5619        46  PMPE      H16Y            5.8067624969      -31.2188526656       -0.9730532249  MEMB      46              0.0000000000
      5620        46  PMPE      H16Z            5.4461611076      -32.8163065786       -0.4038012151  MEMB      46              0.0000000000
      5621        47  PMPG      C13           -31.2930110200        2.6510805480       20.8138864881  MEMB      47              0.0000000000
      5622        47  PMPG      H13A          -31.8927478865        3.0287566327       19.9516305164  MEMB      47              0.0000000000
      5623        47  PMPG      H13B          -31.7806460627        3.0223963297       21.7423671322  MEMB      47              0.0000000000
      5624        47  PMPG      OC3           -29.9789421062        3.2107955777       20.7635371343  MEMB      47              0.0000000000
      5625        47  PMPG      HO3           -30.1502449633        4.1386391658       20.6039866128  MEMB      47              0.0000000000
      5626        47  PMPG      C12           -31.2618602959        1.1018504207       20.8692933206  MEMB      47              0.0000000000
      5627        47  PMPG      H12A          -32.3127949866        0.7398958876       20.7766438704  MEMB      47              0.0000000000
      5628        47  PMPG      OC2           -30.7743628880        0.6928954228       22.1391873660  MEMB      47              0.0000000000
      5629        47  PMPG      HO2           -30.5886073102       -0.2407245195       22.0693248505  MEMB      47              0.0000000000
      5630        47  PMPG      C11           -30.4018604668        0.4501819784       19.7658209153  MEMB      47              0.0000000000
      5631        47  PMPG      H11A          -30.4761273711       -0.6600784456       19.8062957208  MEMB      47              0.0000000000
      5632        47  PMPG      H11B          -29.3287473319        0.7047418379       19.9244739564  MEMB      47              0.0000000000
      5633        47  PMPG      P             -30.3491445500        0.3745477892       17.1416145017  MEMB      47              0.0000000000
      5634        47  PMPG      O13           -30.9905762834       -0.9396333305       16.9418823016  MEMB      47              0.0000000000
      5635        47  PMPG      O14           -28.8857783593        0.4604177003       17.0554525616  MEMB      47              0.0000000000
      5636        47  PMPG      O11           -31.0310576640        1.4137242783       16.1521241709  MEMB      47              0.0000000000
      5637        47  PMPG      O12           -30.8553934821        0.9511005540       18.5222613248  MEMB      47              0.0000000000
      5638        47  PMPG      C1            -32.2115441685        2.0426271641       16.6722470936  MEMB      47              0.0000000000
      5639        47  PMPG      HA            -31.9387162977        2.7898112971       17.4497131737  MEMB      47              0.0000000000
      5640        47  PMPG      HB            -32.9056603584        1.2778944669       17.1065312431  MEMB      47              0.0000000000
      5641        47  PMPG      C2            -33.0586029440        2.7354067217       15.5984670192  MEMB      47              0.0000000000
      5642        47  PMPG      HS            -34.0175065879        3.0167470401       16.0983180254  MEMB      47              0.0000000000
      5643        47  PMPG      O21           -33.2958041492        1.7604545731       14.5858498724  MEMB      47              0.0000000000
      5644        47  PMPG      C21           -34.0730049284        2.2600199956       13.6840732065  MEMB      47              0.0000000000
      5645        47  PMPG      O22           -34.8278473507        3.2049389344       13.7968678712  MEMB      47              0.0000000000
      5646        47  PMPG      C22           -34.1331288049        1.3728678652       12.5103299580  MEMB      47              0.0000000000
      5647        47  PMPG      H2R           -35.2485993032        1.3542598403       12.6460058524  MEMB      47              0.0000000000
      5648        47  PMPG      H2S           -33.5487218596        0.4437213072       12.6410247834  MEMB      47              0.0000000000
      5649        47  PMPG      C3            -32.4008291566        4.0200648352       14.9976414397  MEMB      47              0.0000000000
      5650        47  PMPG      HX            -32.0579654307        4.6224736358       15.8610044684  MEMB      47              0.0000000000
      5651        47  PMPG      HY            -33.1262930424        4.6435892724       14.4287157527  MEMB      47              0.0000000000
      5652        47  PMPG      O31           -31.3581955104        3.6665912245       14.0850765282  MEMB      47              0.0000000000
      5653        47  PMPG      C31           -30.1298130349        3.9910701165       14.4287059799  MEMB      47              0.0000000000
      5654        47  PMPG      O32           -29.8120972564        4.7979850037       15.2836712116  MEMB      47              0.0000000000
      5655        47  PMPG      C32           -29.1927724929        3.2882643815       13.4639677902  MEMB      47              0.0000000000
      5656        47  PMPG      H2X           -28.2246959072        3.1296860607       13.9759202197  MEMB      47              0.0000000000
      5657        47  PMPG      H2Y           -29.0217630906        3.9128872390       12.5720763689  MEMB      47              0.0000000000
      5658        47  PMPG      C23           -33.7607511011        1.8760837674       11.1278289706  MEMB      47              0.0000000000
      5659        47  PMPG      H3R           -32.7013429142        2.1308127362       11.3324421354  MEMB      47              0.0000000000
      5660        47  PMPG      H3S           -34.4738887083        2.6998724074       10.9477737259  MEMB      47              0.0000000000
      5661        47  PMPG      C24           -33.7990566908        1.0038919584        9.8531717256  MEMB      47              0.0000000000
      5662        47  PMPG      H4R           -34.8217010151        0.8680746850        9.4270115725  MEMB      47              0.0000000000
      5663        47  PMPG      H4S           -33.2712446886        0.0519144212        9.9398684748  MEMB      47              0.0000000000
      5664        47  PMPG      C25           -32.7233875594        1.2529628498        8.8323606240  MEMB      47              0.0000000000
      5665        47  PMPG      H5R           -32.4087378100        0.2988159677        8.3194117786  MEMB      47              0.0000000000
      5666        47  PMPG      H5S           -31.8246746284        1.6816983194        9.3230863990  MEMB      47              0.0000000000
      5667        47  PMPG      C26           -33.2943604900        2.0358364514        7.7282626040  MEMB      47              0.0000000000
      5668        47  PMPG      H6R           -34.2103297711        1.5588550181        7.3034514836  MEMB      47              0.0000000000
      5669        47  PMPG      H6S           -32.4803130654        2.0058398403        6.9752303252  MEMB      47              0.0000000000
      5670        47  PMPG      C27           -33.5351307850        3.4583184621        8.1187410907  MEMB      47              0.0000000000
      5671        47  PMPG      H7R           -32.5538896913        3.8634439182        8.4699586214  MEMB      47              0.0000000000
      5672        47  PMPG      H7S           -34.2838678780        3.6504889532        8.9210287423  MEMB      47              0.0000000000
      5673        47  PMPG      C28           -33.9552447952        4.0879476466        6.8346991278  MEMB      47              0.0000000000
      5674        47  PMPG      H8R           -34.9571567225        3.8550184581        6.4332914190  MEMB      47              0.0000000000
      5675        47  PMPG      H8S           -33.1894430528        3.8990498606        6.0412568450  MEMB      47              0.0000000000
      5676        47  PMPG      C29           -33.9883029129        5.4765778066        7.0655135435  MEMB      47              0.0000000000
      5677        47  PMPG      H9R           -34.2557590173        5.9438756361        8.0268307102  MEMB      47              0.0000000000
      5678        47  PMPG      C217          -32.7874543559        6.0195900585        6.3810304340  MEMB      47              0.0000000000
      5679        47  PMPG      H17R          -32.2415536977        6.6624345155        7.0627901238  MEMB      47              0.0000000000
      5680        47  PMPG      H17S          -32.3375789784        5.7682264780        5.4498449084  MEMB      47              0.0000000000
      5681        47  PMPG      C210          -34.2887700722        6.2147727579        5.8624145774  MEMB      47              0.0000000000
      5682        47  PMPG      H10R          -34.9545340712        7.0034942907        6.0459684903  MEMB      47              0.0000000000
      5683        47  PMPG      C211          -34.5854049865        5.7947252662        4.4290186750  MEMB      47              0.0000000000
      5684        47  PMPG      H11R          -34.3120817338        6.5660333311        3.6601155753  MEMB      47              0.0000000000
      5685        47  PMPG      H11S          -34.1222098326        4.8521072810        4.1968039328  MEMB      47              0.0000000000
      5686        47  PMPG      C212          -36.0281122709        5.8739572442        4.1183718430  MEMB      47              0.0000000000
      5687        47  PMPG      H12R          -36.5469271718        6.7047341411        4.6692881584  MEMB      47              0.0000000000
      5688        47  PMPG      H12S          -36.4449966633        4.9280720208        4.5134202981  MEMB      47              0.0000000000
      5689        47  PMPG      C213          -36.2680162782        6.1292181235        2.6089676926  MEMB      47              0.0000000000
      5690        47  PMPG      H13R          -36.2411670022        7.1915743599        2.3115393255  MEMB      47              0.0000000000
      5691        47  PMPG      H13S          -37.2745899877        6.0389178759        2.3582259777  MEMB      47              0.0000000000
      5692        47  PMPG      C214          -35.7198692247        5.1498953067        1.5754288134  MEMB      47              0.0000000000
      5693        47  PMPG      H14R          -34.6401013576        5.1106650771        1.7810585464  MEMB      47              0.0000000000
      5694        47  PMPG      H14S          -35.9042907428        5.6462718479        0.5947398363  MEMB      47              0.0000000000
      5695        47  PMPG      C215          -36.2848917754        3.7123508805        1.4618100506  MEMB      47              0.0000000000
      5696        47  PMPG      H15R          -36.0885435927        3.4370370181        0.3998655196  MEMB      47              0.0000000000
      5697        47  PMPG      H15S          -37.3710751904        3.5229342846        1.5118495045  MEMB      47              0.0000000000
      5698        47  PMPG      C216          -35.5595892607        2.7391998123        2.3796414830  MEMB      47              0.0000000000
      5699        47  PMPG      H16R          -36.0937951814        1.7909791937        2.4924258806  MEMB      47              0.0000000000
      5700        47  PMPG      H16S          -35.4431616468        3.1091763123        3.4169405649  MEMB      47              0.0000000000
      5701        47  PMPG      H16T          -34.5729730603        2.5478945241        1.9216555857  MEMB      47              0.0000000000
      5702        47  PMPG      C33           -29.7632034022        1.9381110212       12.9982585892  MEMB      47              0.0000000000
      5703        47  PMPG      H3X           -30.5320503528        2.0845669364       12.2048798669  MEMB      47              0.0000000000
      5704        47  PMPG      H3Y           -30.2567749743        1.4352090325       13.8622709816  MEMB      47              0.0000000000
      5705        47  PMPG      C34           -28.6312595499        1.0339751864       12.5291692743  MEMB      47              0.0000000000
      5706        47  PMPG      H4X           -29.0827978507        0.0590735039       12.2497081130  MEMB      47              0.0000000000
      5707        47  PMPG      H4Y           -27.9776868442        0.8608565467       13.4175732417  MEMB      47              0.0000000000
      5708        47  PMPG      C35           -27.8644931579        1.6790006553       11.3587624242  MEMB      47              0.0000000000
      5709        47  PMPG      H5X           -27.2267062868        2.5028156771       11.7488280629  MEMB      47              0.0000000000
      5710        47  PMPG      H5Y           -28.6274233057        2.1170175723       10.6796185522  MEMB      47              0.0000000000
      5711        47  PMPG      C36           -26.9747304834        0.7401593795       10.5499995006  MEMB      47              0.0000000000
      5712        47  PMPG      H6X           -26.4652752715        0.0701548610       11.2736322862  MEMB      47              0.0000000000
      5713        47  PMPG      H6Y           -26.1541163498        1.2922270574       10.0393443594  MEMB      47              0.0000000000
      5714        47  PMPG      C37           -27.7617771933       -0.0457351318        9.4878821495  MEMB      47              0.0000000000
      5715        47  PMPG      H7X           -28.6769783802       -0.5114563115        9.9057051853  MEMB      47              0.0000000000
      5716        47  PMPG      H7Y           -27.0921818001       -0.8281985272        9.1110670543  MEMB      47              0.0000000000
      5717        47  PMPG      C38           -28.2026365771        0.7228896112        8.2518802438  MEMB      47              0.0000000000
      5718        47  PMPG      H8X           -27.3841234229        1.2745383037        7.8291776123  MEMB      47              0.0000000000
      5719        47  PMPG      H8Y           -28.8954145403        1.5249523706        8.5512562717  MEMB      47              0.0000000000
      5720        47  PMPG      C39           -28.8565523922       -0.1706668098        7.1898799923  MEMB      47              0.0000000000
      5721        47  PMPG      H9X           -29.6072333377       -0.7602204726        7.7547952677  MEMB      47              0.0000000000
      5722        47  PMPG      H9Y           -28.1622980706       -0.9162511211        6.7385154884  MEMB      47              0.0000000000
      5723        47  PMPG      C310          -29.4923180806        0.7208729183        6.1097200699  MEMB      47              0.0000000000
      5724        47  PMPG      H10X          -28.6903090931        1.1401698933        5.4626995728  MEMB      47              0.0000000000
      5725        47  PMPG      H10Y          -29.9574676488        1.5818660813        6.6418976668  MEMB      47              0.0000000000
      5726        47  PMPG      C311          -30.5449684583        0.0333833980        5.2189711676  MEMB      47              0.0000000000
      5727        47  PMPG      H11X          -31.4928519689       -0.0549063393        5.7929921324  MEMB      47              0.0000000000
      5728        47  PMPG      H11Y          -30.1601645066       -0.9774268157        4.9636978984  MEMB      47              0.0000000000
      5729        47  PMPG      C312          -30.8422688661        0.7155019772        3.8694187721  MEMB      47              0.0000000000
      5730        47  PMPG      H12X          -31.7118069489        0.2544130153        3.3611970926  MEMB      47              0.0000000000
      5731        47  PMPG      H12Y          -29.9207208123        0.5820125110        3.2414795076  MEMB      47              0.0000000000
      5732        47  PMPG      C313          -31.1986268056        2.1937919804        4.0032262406  MEMB      47              0.0000000000
      5733        47  PMPG      H13X          -30.2778876140        2.4975575665        4.4663579312  MEMB      47              0.0000000000
      5734        47  PMPG      H13Y          -31.8366577093        2.4839614558        4.8377089823  MEMB      47              0.0000000000
      5735        47  PMPG      C314          -31.7019251365        2.8260968964        2.6884335137  MEMB      47              0.0000000000
      5736        47  PMPG      H14X          -32.7051327467        2.5507761224        2.3940697668  MEMB      47              0.0000000000
      5737        47  PMPG      H14Y          -31.0831825038        2.4222240778        1.8587151395  MEMB      47              0.0000000000
      5738        47  PMPG      C315          -31.8174046757        4.3408253453        2.6071091799  MEMB      47              0.0000000000
      5739        47  PMPG      H15X          -31.0163831543        4.8189046369        3.1984706548  MEMB      47              0.0000000000
      5740        47  PMPG      H15Y          -32.6262877414        4.7847308724        3.1530314142  MEMB      47              0.0000000000
      5741        47  PMPG      C316          -31.6796702955        4.9201545283        1.1881498194  MEMB      47              0.0000000000
      5742        47  PMPG      H16X          -31.3022304791        5.8229546090        1.6190036626  MEMB      47              0.0000000000
      5743        47  PMPG      H16Y          -32.4914712455        4.8793494390        0.4803326961  MEMB      47              0.0000000000
      5744        47  PMPG      H16Z          -30.7990055364        4.8332614200        0.5253613398  MEMB      47              0.0000000000
      5745        48  PYPG      C13           -30.1316064345       -7.6008860498       21.5023677100  MEMB      48              0.0000000000
      5746        48  PYPG      H13A          -31.1001174457       -8.1127114901       21.3114194974  MEMB      48              0.0000000000
      5747        48  PYPG      H13B          -29.8308823501       -7.8250082369       22.5502106599  MEMB      48              0.0000000000
      5748        48  PYPG      OC3           -30.2877130407       -6.1895464554       21.3364193083  MEMB      48              0.0000000000
      5749        48  PYPG      HO3           -30.4909222406       -6.0827585884       20.3961963232  MEMB      48              0.0000000000
      5750        48  PYPG      C12           -29.0253199563       -8.1770776823       20.5855338573  MEMB      48              0.0000000000
      5751        48  PYPG      H12A          -29.1344788081       -9.2837443095       20.5700937641  MEMB      48              0.0000000000
      5752        48  PYPG      OC2           -27.7659529486       -7.8402311275       21.1355328608  MEMB      48              0.0000000000
      5753        48  PYPG      HO2           -27.1132151240       -8.1027005098       20.4887020782  MEMB      48              0.0000000000
      5754        48  PYPG      C11           -29.0472730608       -7.6795512923       19.1355515699  MEMB      48              0.0000000000
      5755        48  PYPG      H11A          -28.2516161477       -8.1838272802       18.5346472447  MEMB      48              0.0000000000
      5756        48  PYPG      H11B          -28.8305464900       -6.5787371103       19.1671469015  MEMB      48              0.0000000000
      5757        48  PYPG      P             -30.6354271704       -7.2106264867       17.2296140113  MEMB      48              0.0000000000
      5758        48  PYPG      O13           -29.6236935299       -7.5392549596       16.2124078057  MEMB      48              0.0000000000
      5759        48  PYPG      O14           -30.8266755082       -5.7869103432       17.5714478660  MEMB      48              0.0000000000
      5760        48  PYPG      O11           -31.9826034456       -7.8585417040       16.7624471848  MEMB      48              0.0000000000
      5761        48  PYPG      O12           -30.3200781602       -7.9830638650       18.5659858949  MEMB      48              0.0000000000
      5762        48  PYPG      C1            -32.7213156152       -8.9715726240       17.2575638901  MEMB      48              0.0000000000
      5763        48  PYPG      HA            -33.3341826827       -8.6407960526       18.1198327527  MEMB      48              0.0000000000
      5764        48  PYPG      HB            -32.0413349867       -9.7958496420       17.5445709592  MEMB      48              0.0000000000
      5765        48  PYPG      C2            -33.6214369975       -9.6985988640       16.1956802634  MEMB      48              0.0000000000
      5766        48  PYPG      HS            -34.2501087986      -10.4731624883       16.6759580914  MEMB      48              0.0000000000
      5767        48  PYPG      O21           -32.7989219636      -10.2749925209       15.1782401262  MEMB      48              0.0000000000
      5768        48  PYPG      C21           -33.4779760173      -10.8943983173       14.2156540857  MEMB      48              0.0000000000
      5769        48  PYPG      O22           -34.6538264038      -11.1972982088       14.2549056230  MEMB      48              0.0000000000
      5770        48  PYPG      C22           -32.4524714888      -11.2145720188       13.1497323438  MEMB      48              0.0000000000
      5771        48  PYPG      H2R           -31.6710725400      -11.8088926936       13.6687961613  MEMB      48              0.0000000000
      5772        48  PYPG      H2S           -32.0202520979      -10.3097362136       12.6956322096  MEMB      48              0.0000000000
      5773        48  PYPG      C3            -34.6096656729       -8.8715529822       15.4821666232  MEMB      48              0.0000000000
      5774        48  PYPG      HX            -35.1840510197       -8.2285534745       16.2375139957  MEMB      48              0.0000000000
      5775        48  PYPG      HY            -35.4860766977       -9.5177127400       15.2904557793  MEMB      48              0.0000000000
      5776        48  PYPG      O31           -33.7287105245       -8.2444836005       14.3642017568  MEMB      48              0.0000000000
      5777        48  PYPG      C31           -33.7876691360       -7.4226068827       13.2489769940  MEMB      48              0.0000000000
      5778        48  PYPG      O32           -34.2562249572       -7.7865476226       12.2395145215  MEMB      48              0.0000000000
      5779        48  PYPG      C32           -33.4605438614       -5.8910090270       13.1515023393  MEMB      48              0.0000000000
      5780        48  PYPG      H2X           -34.3468698194       -5.2363263498       12.9412064344  MEMB      48              0.0000000000
      5781        48  PYPG      H2Y           -32.8917032142       -5.2687684936       13.8702114223  MEMB      48              0.0000000000
      5782        48  PYPG      C23           -32.8881424361      -12.0653665943       11.9978385875  MEMB      48              0.0000000000
      5783        48  PYPG      H3R           -33.2925244085      -13.0159742525       12.4064770862  MEMB      48              0.0000000000
      5784        48  PYPG      H3S           -32.0288776548      -12.3131494026       11.4430500763  MEMB      48              0.0000000000
      5785        48  PYPG      C24           -33.6796533993      -11.4276584913       10.8735877221  MEMB      48              0.0000000000
      5786        48  PYPG      H4R           -34.4140653355      -11.1184209578       11.6351220367  MEMB      48              0.0000000000
      5787        48  PYPG      H4S           -34.0785479999      -12.0829900703       10.0688036417  MEMB      48              0.0000000000
      5788        48  PYPG      C25           -33.7865568627      -10.0299041927       10.4618708553  MEMB      48              0.0000000000
      5789        48  PYPG      H5R           -32.7753853166       -9.8535990461       10.1722217295  MEMB      48              0.0000000000
      5790        48  PYPG      H5S           -34.0352309216       -9.4719376087       11.3335182809  MEMB      48              0.0000000000
      5791        48  PYPG      C26           -34.8530891853       -9.7090483147        9.4393104971  MEMB      48              0.0000000000
      5792        48  PYPG      H6R           -35.9149578368       -9.6319148302        9.8063630895  MEMB      48              0.0000000000
      5793        48  PYPG      H6S           -34.8973637209      -10.4222385280        8.5843684149  MEMB      48              0.0000000000
      5794        48  PYPG      C27           -34.5640889878       -8.3202364452        9.0550799061  MEMB      48              0.0000000000
      5795        48  PYPG      H7R           -33.5851627825       -8.1696141570        8.6015997812  MEMB      48              0.0000000000
      5796        48  PYPG      H7S           -34.6772800089       -7.6788187225        9.9348532344  MEMB      48              0.0000000000
      5797        48  PYPG      C28           -35.5809105949       -8.0083423485        8.1083110254  MEMB      48              0.0000000000
      5798        48  PYPG      H8R           -36.4179669372       -7.7266056747        8.5598500318  MEMB      48              0.0000000000
      5799        48  PYPG      H8S           -36.2077839665       -8.8998072079        7.9287156016  MEMB      48              0.0000000000
      5800        48  PYPG      C29           -35.7166217910       -6.6992321474        7.5045707871  MEMB      48              0.0000000000
      5801        48  PYPG      H9R           -35.2525978566       -6.0172600108        8.1827032983  MEMB      48              0.0000000000
      5802        48  PYPG      C210          -36.0445485584       -6.2049397551        6.3010215644  MEMB      48              0.0000000000
      5803        48  PYPG      H10R          -36.0886283268       -5.1498265772        6.1170896612  MEMB      48              0.0000000000
      5804        48  PYPG      C211          -36.3808036137       -6.7464843725        5.0612925832  MEMB      48              0.0000000000
      5805        48  PYPG      H11R          -36.9214613764       -6.2647814966        4.2347038009  MEMB      48              0.0000000000
      5806        48  PYPG      H11S          -37.1627206359       -7.2058201899        5.4988597585  MEMB      48              0.0000000000
      5807        48  PYPG      C212          -35.2024299655       -7.3508405115        4.4307339651  MEMB      48              0.0000000000
      5808        48  PYPG      H12R          -34.4727087193       -7.7787189713        5.1998394130  MEMB      48              0.0000000000
      5809        48  PYPG      H12S          -34.2580727371       -6.8583398637        4.1761579672  MEMB      48              0.0000000000
      5810        48  PYPG      C213          -36.0609693318       -8.0735629565        3.2360095272  MEMB      48              0.0000000000
      5811        48  PYPG      H13R          -36.5620887126       -8.9923378466        3.4509563509  MEMB      48              0.0000000000
      5812        48  PYPG      H13S          -35.6463591974       -8.8850779937        3.3423557224  MEMB      48              0.0000000000
      5813        48  PYPG      C214          -36.5111073906       -8.0399811119        1.7199536735  MEMB      48              0.0000000000
      5814        48  PYPG      H14R          -37.3155510436       -7.4684391747        2.2190682748  MEMB      48              0.0000000000
      5815        48  PYPG      H14S          -35.6182724198       -7.5422414881        1.2794591154  MEMB      48              0.0000000000
      5816        48  PYPG      C215          -37.1871543890       -9.2453892490        0.7145731201  MEMB      48              0.0000000000
      5817        48  PYPG      H15R          -37.9952281912       -8.6817147333        0.2673755027  MEMB      48              0.0000000000
      5818        48  PYPG      H15S          -37.7435229022      -10.0165219473        1.2216623518  MEMB      48              0.0000000000
      5819        48  PYPG      C216          -36.4552822558      -10.3434320511       -0.2759760893  MEMB      48              0.0000000000
      5820        48  PYPG      H16R          -35.8154685600       -9.5895485555       -0.7404644743  MEMB      48              0.0000000000
      5821        48  PYPG      H16S          -37.1349825591      -11.0923501235       -0.6974350360  MEMB      48              0.0000000000
      5822        48  PYPG      H16T          -35.5232686199      -11.0385288496       -0.1684934506  MEMB      48              0.0000000000
      5823        48  PYPG      C33           -32.5558564176       -6.0549946012       12.0776266428  MEMB      48              0.0000000000
      5824        48  PYPG      H3X           -32.4215015907       -4.9641901557       11.9828973286  MEMB      48              0.0000000000
      5825        48  PYPG      H3Y           -32.9984522239       -6.4909529412       11.1441977416  MEMB      48              0.0000000000
      5826        48  PYPG      C34           -31.2629709427       -6.7118251280       12.4920697120  MEMB      48              0.0000000000
      5827        48  PYPG      H4X           -31.4637217051       -7.6212611128       13.1029607621  MEMB      48              0.0000000000
      5828        48  PYPG      H4Y           -30.7392772848       -5.9992952111       13.1617105180  MEMB      48              0.0000000000
      5829        48  PYPG      C35           -30.3908676067       -7.0737379334       11.2963954927  MEMB      48              0.0000000000
      5830        48  PYPG      H5X           -29.4204538459       -7.4042078320       11.7220346790  MEMB      48              0.0000000000
      5831        48  PYPG      H5Y           -30.2284506208       -6.2108291386       10.6201174363  MEMB      48              0.0000000000
      5832        48  PYPG      C36           -30.9594128449       -8.1915788423       10.4415334942  MEMB      48              0.0000000000
      5833        48  PYPG      H6X           -31.9680362904       -7.9425052888       10.0576918285  MEMB      48              0.0000000000
      5834        48  PYPG      H6Y           -31.0368551551       -9.0874871448       11.1128401000  MEMB      48              0.0000000000
      5835        48  PYPG      C37           -30.1380196858       -8.5078215768        9.1973497728  MEMB      48              0.0000000000
      5836        48  PYPG      H7X           -30.1152502134       -7.8052610262        8.3594001275  MEMB      48              0.0000000000
      5837        48  PYPG      H7Y           -29.0898328044       -8.7314409814        9.5583487165  MEMB      48              0.0000000000
      5838        48  PYPG      C38           -30.6889467891       -9.7498628620        8.5529266172  MEMB      48              0.0000000000
      5839        48  PYPG      H8X           -30.8879098538      -10.2826102279        9.4876653888  MEMB      48              0.0000000000
      5840        48  PYPG      H8Y           -29.8810064065      -10.0735751471        7.8640219288  MEMB      48              0.0000000000
      5841        48  PYPG      C39           -31.8327360157      -10.0515760074        7.6668485947  MEMB      48              0.0000000000
      5842        48  PYPG      H9X           -31.6094681473       -9.3612726848        6.8322732125  MEMB      48              0.0000000000
      5843        48  PYPG      H9Y           -32.7462417243       -9.8351342131        8.1953041250  MEMB      48              0.0000000000
      5844        48  PYPG      C310          -31.7783774297      -11.5176180842        7.1620792295  MEMB      48              0.0000000000
      5845        48  PYPG      H10X          -31.9364974108      -12.3779434865        7.8398706589  MEMB      48              0.0000000000
      5846        48  PYPG      H10Y          -30.7968969251      -11.5549362159        6.6843924928  MEMB      48              0.0000000000
      5847        48  PYPG      C311          -32.7076160053      -11.7551768776        6.0387639390  MEMB      48              0.0000000000
      5848        48  PYPG      H11X          -32.5228303056      -10.8069283551        5.4706444292  MEMB      48              0.0000000000
      5849        48  PYPG      H11Y          -33.7124274923      -11.8452751374        6.5043164384  MEMB      48              0.0000000000
      5850        48  PYPG      C312          -32.6205198563      -12.9297571636        5.1034637464  MEMB      48              0.0000000000
      5851        48  PYPG      H12X          -32.1313593348      -13.8149074269        5.5820616498  MEMB      48              0.0000000000
      5852        48  PYPG      H12Y          -33.5847601879      -13.1462032794        4.6199829208  MEMB      48              0.0000000000
      5853        48  PYPG      C313          -31.9349106000      -12.6223576706        3.8173703876  MEMB      48              0.0000000000
      5854        48  PYPG      H13X          -31.3152202931      -11.9469573316        4.3315204001  MEMB      48              0.0000000000
      5855        48  PYPG      H13Y          -31.4956226278      -13.5483469469        3.5036572835  MEMB      48              0.0000000000
      5856        48  PYPG      C314          -32.0576939596      -11.4299983029        2.8886099568  MEMB      48              0.0000000000
      5857        48  PYPG      H14X          -33.0855073024      -11.7104751258        2.6499914657  MEMB      48              0.0000000000
      5858        48  PYPG      H14Y          -31.9024381308      -10.5126518367        3.4924259726  MEMB      48              0.0000000000
      5859        48  PYPG      C315          -31.2139265105      -11.1327249686        1.5777291784  MEMB      48              0.0000000000
      5860        48  PYPG      H15X          -30.1878592347      -10.7859636000        1.8443486083  MEMB      48              0.0000000000
      5861        48  PYPG      H15Y          -31.2129786000      -12.0980532268        1.0584790823  MEMB      48              0.0000000000
      5862        48  PYPG      C316          -31.4093284553      -10.0182727752        0.5937093168  MEMB      48              0.0000000000
      5863        48  PYPG      H16X          -32.3879349765      -10.2040960331        0.1164941772  MEMB      48              0.0000000000
      5864        48  PYPG      H16Y          -30.6265504377      -10.0470609319       -0.1730646312  MEMB      48              0.0000000000
      5865        48  PYPG      H16Z          -31.3756505943       -9.0656249853        1.1762278853  MEMB      48              0.0000000000
      5866        49  PMPG      C13            13.6598947253       27.3885995457       21.0110509212  MEMB      49              0.0000000000
      5867        49  PMPG      H13A           14.2710960022       26.8698785730       20.2380096673  MEMB      49              0.0000000000
      5868        49  PMPG      H13B           14.3101280256       27.5421068013       21.9050816606  MEMB      49              0.0000000000
      5869        49  PMPG      OC3            12.5225962824       26.5950064027       21.3794630007  MEMB      49              0.0000000000
      5870        49  PMPG      HO3            12.1450229138       27.1720927124       22.0600495322  MEMB      49              0.0000000000
      5871        49  PMPG      C12            13.1719128259       28.7697270382       20.4930776745  MEMB      49              0.0000000000
      5872        49  PMPG      H12A           14.0438508358       29.4022540006       20.2263816492  MEMB      49              0.0000000000
      5873        49  PMPG      OC2            12.4696774202       29.4637131837       21.5253197445  MEMB      49              0.0000000000
      5874        49  PMPG      HO2            11.9358303103       30.1104361201       21.0435319372  MEMB      49              0.0000000000
      5875        49  PMPG      C11            12.2974493528       28.6378287788       19.2144868750  MEMB      49              0.0000000000
      5876        49  PMPG      H11A           11.4696173197       27.9127480285       19.3959620173  MEMB      49              0.0000000000
      5877        49  PMPG      H11B           12.9641521652       28.1919887171       18.4317877457  MEMB      49              0.0000000000
      5878        49  PMPG      P              11.2504802178       30.0393957249       17.2913599203  MEMB      49              0.0000000000
      5879        49  PMPG      O13            10.0495675655       30.8910586085       17.1983477993  MEMB      49              0.0000000000
      5880        49  PMPG      O14            11.2577419481       28.6994076379       16.6931164772  MEMB      49              0.0000000000
      5881        49  PMPG      O11            12.4018881397       30.7786721574       16.5543465596  MEMB      49              0.0000000000
      5882        49  PMPG      O12            11.7663876115       29.9127959178       18.8044118142  MEMB      49              0.0000000000
      5883        49  PMPG      C1             13.3844695120       31.5377321896       17.1905517052  MEMB      49              0.0000000000
      5884        49  PMPG      HA             13.6106753187       31.2202345095       18.2346739742  MEMB      49              0.0000000000
      5885        49  PMPG      HB             12.9605758746       32.5520659999       17.2869455303  MEMB      49              0.0000000000
      5886        49  PMPG      C2             14.7325279871       31.4333523691       16.3787123101  MEMB      49              0.0000000000
      5887        49  PMPG      HS             15.5091350133       31.9343105604       17.0596765853  MEMB      49              0.0000000000
      5888        49  PMPG      O21            14.6888745962       31.8192718018       14.9303609545  MEMB      49              0.0000000000
      5889        49  PMPG      C21            14.8308076255       33.0874974182       15.0120975662  MEMB      49              0.0000000000
      5890        49  PMPG      O22            14.8377387313       33.5706376123       16.1243021686  MEMB      49              0.0000000000
      5891        49  PMPG      C22            15.0231946930       33.8526161621       13.6615266055  MEMB      49              0.0000000000
      5892        49  PMPG      H2R            16.0326525547       34.2738597028       13.6590108272  MEMB      49              0.0000000000
      5893        49  PMPG      H2S            14.4819594293       34.7963743091       13.5203961691  MEMB      49              0.0000000000
      5894        49  PMPG      C3             15.3312781157       30.0781867548       16.2805555882  MEMB      49              0.0000000000
      5895        49  PMPG      HX             15.3115534812       29.6020011266       17.2736682011  MEMB      49              0.0000000000
      5896        49  PMPG      HY             16.3828599667       30.2736738278       15.9441925710  MEMB      49              0.0000000000
      5897        49  PMPG      O31            14.5389216679       29.3444265152       15.3546555820  MEMB      49              0.0000000000
      5898        49  PMPG      C31            15.0033873045       29.2146926613       14.1400267660  MEMB      49              0.0000000000
      5899        49  PMPG      O32            16.1632472102       29.3674333347       13.7737351701  MEMB      49              0.0000000000
      5900        49  PMPG      C32            13.8432091853       28.7256845286       13.2988231678  MEMB      49              0.0000000000
      5901        49  PMPG      H2X            13.0964565188       29.5341094273       13.1476108223  MEMB      49              0.0000000000
      5902        49  PMPG      H2Y            13.3598292689       27.8997648074       13.8657879616  MEMB      49              0.0000000000
      5903        49  PMPG      C23            14.6022084067       32.9743466115       12.5270578065  MEMB      49              0.0000000000
      5904        49  PMPG      H3R            13.4993147047       32.7666937205       12.5055709367  MEMB      49              0.0000000000
      5905        49  PMPG      H3S            15.1117892800       32.0034664021       12.6766371169  MEMB      49              0.0000000000
      5906        49  PMPG      C24            15.0403041388       33.5360737999       11.2176975881  MEMB      49              0.0000000000
      5907        49  PMPG      H4R            16.0636453241       33.8159075521       11.0922752020  MEMB      49              0.0000000000
      5908        49  PMPG      H4S            14.7597823104       34.5884618958       11.0113083060  MEMB      49              0.0000000000
      5909        49  PMPG      C25            14.8353782258       32.4248522205       10.1882987691  MEMB      49              0.0000000000
      5910        49  PMPG      H5R            13.9288167650       31.8119949785       10.3942905038  MEMB      49              0.0000000000
      5911        49  PMPG      H5S            15.7758492872       31.9107714474        9.9939869656  MEMB      49              0.0000000000
      5912        49  PMPG      C26            14.7549372185       33.0533935378        8.8953036227  MEMB      49              0.0000000000
      5913        49  PMPG      H6R            15.2551059423       34.0249830264        9.1851271900  MEMB      49              0.0000000000
      5914        49  PMPG      H6S            13.6939743764       33.0637495325        8.5823858072  MEMB      49              0.0000000000
      5915        49  PMPG      C27            15.0795420046       32.7042753771        7.4235813121  MEMB      49              0.0000000000
      5916        49  PMPG      H7R            14.5129504093       31.7109400723        7.3934511263  MEMB      49              0.0000000000
      5917        49  PMPG      H7S            16.1653782763       32.5801153288        7.4231718239  MEMB      49              0.0000000000
      5918        49  PMPG      C28            14.6697330224       33.8576360841        6.1209942873  MEMB      49              0.0000000000
      5919        49  PMPG      H8R            14.7461037389       32.7605517409        5.6973698386  MEMB      49              0.0000000000
      5920        49  PMPG      H8S            15.2124960686       34.4736956588        5.6471244106  MEMB      49              0.0000000000
      5921        49  PMPG      C29            12.3796115481       35.0978573422        6.2875054599  MEMB      49              0.0000000000
      5922        49  PMPG      H9R            12.1044213402       36.0191473108        6.6388656159  MEMB      49              0.0000000000
      5923        49  PMPG      C217           10.9823647238       34.9397645987        5.6859261095  MEMB      49              0.0000000000
      5924        49  PMPG      H17R           10.4800355951       35.7626221445        5.4994704052  MEMB      49              0.0000000000
      5925        49  PMPG      H17S           11.1151552909       34.4941378075        4.7307057649  MEMB      49              0.0000000000
      5926        49  PMPG      C210           11.2094207666       33.8867736375        7.2258116023  MEMB      49              0.0000000000
      5927        49  PMPG      H10R           10.3169621037       33.6714636588        7.7019635210  MEMB      49              0.0000000000
      5928        49  PMPG      C211           11.1701602044       31.8009565060        7.1323797771  MEMB      49              0.0000000000
      5929        49  PMPG      H11R           11.9442068080       31.1735870383        6.4163926838  MEMB      49              0.0000000000
      5930        49  PMPG      H11S           11.5142586128       31.2687993638        7.9691260381  MEMB      49              0.0000000000
      5931        49  PMPG      C212           10.0711757889       31.1835508003        6.2060431833  MEMB      49              0.0000000000
      5932        49  PMPG      H12R            9.2389803913       31.6980683391        6.7106720426  MEMB      49              0.0000000000
      5933        49  PMPG      H12S           10.1600232629       30.0900405883        6.3297534477  MEMB      49              0.0000000000
      5934        49  PMPG      C213           10.0304484432       31.4259162274        4.6524361804  MEMB      49              0.0000000000
      5935        49  PMPG      H13R           11.0036161485       31.3552095394        4.1154669016  MEMB      49              0.0000000000
      5936        49  PMPG      H13S            9.6046905374       32.4633441378        4.5444259581  MEMB      49              0.0000000000
      5937        49  PMPG      C214            9.0607753242       30.5525186281        3.9567931713  MEMB      49              0.0000000000
      5938        49  PMPG      H14R            8.1897679434       30.6726716107        4.6480151550  MEMB      49              0.0000000000
      5939        49  PMPG      H14S            9.2917762399       29.4857713334        3.9881510788  MEMB      49              0.0000000000
      5940        49  PMPG      C215            8.7428793272       31.0183069377        2.5191625618  MEMB      49              0.0000000000
      5941        49  PMPG      H15R            8.4154658304       32.0839486382        2.6460144672  MEMB      49              0.0000000000
      5942        49  PMPG      H15S            7.9204273808       30.3510734446        2.1466551045  MEMB      49              0.0000000000
      5943        49  PMPG      C216            9.7003017486       31.1613521427        1.4133192326  MEMB      49              0.0000000000
      5944        49  PMPG      H16R           10.4713073048       31.8621163667        1.6956146839  MEMB      49              0.0000000000
      5945        49  PMPG      H16S            9.2182155465       31.5131779347        0.4740895013  MEMB      49              0.0000000000
      5946        49  PMPG      H16T           10.1091487602       30.1767059455        1.2949126724  MEMB      49              0.0000000000
      5947        49  PMPG      C33            14.3559474487       28.2455188816       11.9484144656  MEMB      49              0.0000000000
      5948        49  PMPG      H3X            15.0842309845       27.4191747773       12.1284670830  MEMB      49              0.0000000000
      5949        49  PMPG      H3Y            14.8753882881       29.0864539693       11.4314704776  MEMB      49              0.0000000000
      5950        49  PMPG      C34            13.2067295326       27.7179210299       11.1039445739  MEMB      49              0.0000000000
      5951        49  PMPG      H4X            12.3811111428       28.4602105345       11.0288696733  MEMB      49              0.0000000000
      5952        49  PMPG      H4Y            12.7942668557       26.8314851451       11.6374173682  MEMB      49              0.0000000000
      5953        49  PMPG      C35            13.6762133191       27.3266757495        9.7149658910  MEMB      49              0.0000000000
      5954        49  PMPG      H5X            13.1059267172       26.4260793308        9.3863762308  MEMB      49              0.0000000000
      5955        49  PMPG      H5Y            14.7600315982       27.0687573215        9.6878149440  MEMB      49              0.0000000000
      5956        49  PMPG      C36            13.5048305170       28.4307242627        8.6881606106  MEMB      49              0.0000000000
      5957        49  PMPG      H6X            14.0049771439       29.3884842610        8.9577644312  MEMB      49              0.0000000000
      5958        49  PMPG      H6Y            12.4202042100       28.6399507373        8.5276989452  MEMB      49              0.0000000000
      5959        49  PMPG      C37            14.1669325867       27.9365835865        7.4237123662  MEMB      49              0.0000000000
      5960        49  PMPG      H7X            14.0764555447       26.8254270025        7.3669232266  MEMB      49              0.0000000000
      5961        49  PMPG      H7Y            15.2521148423       28.1906756225        7.4252120800  MEMB      49              0.0000000000
      5962        49  PMPG      C38            13.5323310250       28.6509971410        6.2780577349  MEMB      49              0.0000000000
      5963        49  PMPG      H8X            13.8396063365       29.7178848779        6.3239459463  MEMB      49              0.0000000000
      5964        49  PMPG      H8Y            12.4180447793       28.6195626786        6.3184444433  MEMB      49              0.0000000000
      5965        49  PMPG      C39            14.0312677608       28.1544673831        4.9696465486  MEMB      49              0.0000000000
      5966        49  PMPG      H9X            13.2302005574       27.4192698603        4.7028256220  MEMB      49              0.0000000000
      5967        49  PMPG      H9Y            15.0136936621       27.6284091681        4.9783038516  MEMB      49              0.0000000000
      5968        49  PMPG      C310           14.1797758645       29.4127917717        4.0826936379  MEMB      49              0.0000000000
      5969        49  PMPG      H10X           14.9455579924       30.1155195801        4.3865707304  MEMB      49              0.0000000000
      5970        49  PMPG      H10Y           13.1498877723       29.8730028371        4.1014828073  MEMB      49              0.0000000000
      5971        49  PMPG      C311           14.7646943519       29.1505203839        2.6980238403  MEMB      49              0.0000000000
      5972        49  PMPG      H11X           13.9845362851       28.3967818862        2.9008993146  MEMB      49              0.0000000000
      5973        49  PMPG      H11Y           15.6331375029       28.5817152671        2.3924419807  MEMB      49              0.0000000000
      5974        49  PMPG      C312           14.7091718003       30.0806508630        1.4560065324  MEMB      49              0.0000000000
      5975        49  PMPG      H12X           13.7780148520       30.2361578678        1.0004748124  MEMB      49              0.0000000000
      5976        49  PMPG      H12Y           14.6647788009       29.8840332299        0.3655975064  MEMB      49              0.0000000000
      5977        49  PMPG      C313           14.7335597344       31.3688159273        1.8743649272  MEMB      49              0.0000000000
      5978        49  PMPG      H13X           15.7725372578       31.5555995604        1.5265373273  MEMB      49              0.0000000000
      5979        49  PMPG      H13Y           14.4626218024       31.4625494853        2.9634071026  MEMB      49              0.0000000000
      5980        49  PMPG      C314           13.6351282170       32.1650033273        1.1834062198  MEMB      49              0.0000000000
      5981        49  PMPG      H14X           14.3530498576       32.9499954793        1.5421784040  MEMB      49              0.0000000000
      5982        49  PMPG      H14Y           12.8859327009       32.4466445232        1.8426257213  MEMB      49              0.0000000000
      5983        49  PMPG      C315           12.8834541797       32.0434893981       -0.3746796067  MEMB      49              0.0000000000
      5984        49  PMPG      H15X           12.7766293272       31.1103063808       -0.9454213972  MEMB      49              0.0000000000
      5985        49  PMPG      H15Y           14.0248558139       31.8685491423       -0.6937230616  MEMB      49              0.0000000000
      5986        49  PMPG      C316           11.7741219819       33.4456136090       -1.0915934481  MEMB      49              0.0000000000
      5987        49  PMPG      H16X           12.3061519444       34.4784203400       -1.3229412223  MEMB      49              0.0000000000
      5988        49  PMPG      H16Y           11.4893961109       34.2864415313       -0.4577438773  MEMB      49              0.0000000000
      5989        49  PMPG      H16Z           11.6614052669       33.7014989512       -2.2101688572  MEMB      49              0.0000000000
      5990        50  PMPE      N              31.4423408415      -13.0716365027       19.1418073757  MEMB      50              0.0000000000
      5991        50  PMPE      HN1            31.8975403692      -13.5044641232       19.9744704867  MEMB      50              0.0000000000
      5992        50  PMPE      HN2            30.9856576156      -13.8271662407       18.5743424406  MEMB      50              0.0000000000
      5993        50  PMPE      HN3            32.1420087480      -12.5479813960       18.5692487798  MEMB      50              0.0000000000
      5994        50  PMPE      C12            30.3058792494      -12.1840564323       19.5747604235  MEMB      50              0.0000000000
      5995        50  PMPE      H12A           30.0568446061      -11.5153832009       18.7247024131  MEMB      50              0.0000000000
      5996        50  PMPE      H12B           30.6450864045      -11.5800983913       20.4392642733  MEMB      50              0.0000000000
      5997        50  PMPE      C11            29.0713791311      -13.0451544114       19.8856331254  MEMB      50              0.0000000000
      5998        50  PMPE      H11A           28.2574630559      -12.4183668228       20.3263049281  MEMB      50              0.0000000000
      5999        50  PMPE      H11B           29.3551276751      -13.8199350430       20.6403178618  MEMB      50              0.0000000000
      6000        50  PMPE      P              27.3107269795      -14.5981724477       18.7417464451  MEMB      50              0.0000000000
      6001        50  PMPE      O13            26.2012311689      -13.8566809418       19.3839671293  MEMB      50              0.0000000000
      6002        50  PMPE      O14            27.6833229413      -15.8610442476       19.3947682079  MEMB      50              0.0000000000
      6003        50  PMPE      O11            26.9970365666      -14.8626856570       17.2043371811  MEMB      50              0.0000000000
      6004        50  PMPE      O12            28.6164829133      -13.6479749976       18.6762315414  MEMB      50              0.0000000000
      6005        50  PMPE      C1             26.5183139969      -13.9168039215       16.2462496873  MEMB      50              0.0000000000
      6006        50  PMPE      HA             26.5271677228      -12.8874585948       16.6677770874  MEMB      50              0.0000000000
      6007        50  PMPE      HB             25.4712202704      -14.1701807233       15.9686164728  MEMB      50              0.0000000000
      6008        50  PMPE      C2             27.3370460830      -13.8963600538       14.9030004840  MEMB      50              0.0000000000
      6009        50  PMPE      HS             26.9191777826      -13.0597846603       14.2959300643  MEMB      50              0.0000000000
      6010        50  PMPE      O21            27.1654345637      -15.1524801750       14.2032510753  MEMB      50              0.0000000000
      6011        50  PMPE      C21            27.3612121748      -15.1743466927       12.8816490648  MEMB      50              0.0000000000
      6012        50  PMPE      O22            27.6729925350      -14.2226091374       12.1914677374  MEMB      50              0.0000000000
      6013        50  PMPE      C22            27.0318029210      -16.5801195313       12.3701323308  MEMB      50              0.0000000000
      6014        50  PMPE      H2R            26.1046559886      -16.8834842151       12.9052749609  MEMB      50              0.0000000000
      6015        50  PMPE      H2S            27.8397903477      -17.2872738824       12.6405423842  MEMB      50              0.0000000000
      6016        50  PMPE      C3             28.8383382012      -13.6099272677       15.2299443854  MEMB      50              0.0000000000
      6017        50  PMPE      HX             29.2464813150      -14.4504129676       15.8367510228  MEMB      50              0.0000000000
      6018        50  PMPE      HY             28.8660540254      -12.7291108205       15.9038115350  MEMB      50              0.0000000000
      6019        50  PMPE      O31            29.6244944588      -13.2799739769       14.0647837778  MEMB      50              0.0000000000
      6020        50  PMPE      C31            30.4062184437      -14.2594822769       13.6166119946  MEMB      50              0.0000000000
      6021        50  PMPE      O32            30.6131880493      -15.3110426377       14.1951197210  MEMB      50              0.0000000000
      6022        50  PMPE      C32            30.9940975458      -13.8984317008       12.2647638469  MEMB      50              0.0000000000
      6023        50  PMPE      H2X            31.9305804606      -13.3274796748       12.4164047168  MEMB      50              0.0000000000
      6024        50  PMPE      H2Y            30.2741747332      -13.2639087097       11.7105464731  MEMB      50              0.0000000000
      6025        50  PMPE      C23            26.6719287742      -16.6479988685       10.8666551503  MEMB      50              0.0000000000
      6026        50  PMPE      H3R            25.8777315514      -15.8929508159       10.6738454956  MEMB      50              0.0000000000
      6027        50  PMPE      H3S            26.2495309707      -17.6677849676       10.7057207257  MEMB      50              0.0000000000
      6028        50  PMPE      C24            27.8235977558      -16.4190916009        9.8700729646  MEMB      50              0.0000000000
      6029        50  PMPE      H4R            28.5159867765      -15.6761764449       10.3039045933  MEMB      50              0.0000000000
      6030        50  PMPE      H4S            27.4156442820      -15.9751292170        8.9336396236  MEMB      50              0.0000000000
      6031        50  PMPE      C25            28.5248445760      -17.7312273860        9.4901723893  MEMB      50              0.0000000000
      6032        50  PMPE      H5R            27.7817661082      -18.3375372790        8.9268148195  MEMB      50              0.0000000000
      6033        50  PMPE      H5S            28.7608530046      -18.2573330086       10.4435218541  MEMB      50              0.0000000000
      6034        50  PMPE      C26            29.7530128263      -17.6403450940        8.5565740818  MEMB      50              0.0000000000
      6035        50  PMPE      H6R            30.2612560341      -18.6321357672        8.5939796291  MEMB      50              0.0000000000
      6036        50  PMPE      H6S            30.4734809993      -16.8711272442        8.9035024848  MEMB      50              0.0000000000
      6037        50  PMPE      C27            29.3710919573      -17.4015727593        7.0782404760  MEMB      50              0.0000000000
      6038        50  PMPE      H7R            28.5955939649      -16.6049301326        7.0642361597  MEMB      50              0.0000000000
      6039        50  PMPE      H7S            28.8968416652      -18.3282466154        6.6827777165  MEMB      50              0.0000000000
      6040        50  PMPE      C28            30.5099341139      -16.8941931321        6.1530130719  MEMB      50              0.0000000000
      6041        50  PMPE      H8R            30.7523034726      -15.8574518190        6.4755364201  MEMB      50              0.0000000000
      6042        50  PMPE      H8S            30.1397918927      -16.8294717690        5.1085039907  MEMB      50              0.0000000000
      6043        50  PMPE      C29            31.7850413343      -17.7351395326        6.2077818991  MEMB      50              0.0000000000
      6044        50  PMPE      H9R            32.2250513107      -17.9048456767        7.2044143898  MEMB      50              0.0000000000
      6045        50  PMPE      C217           32.8728895540      -17.4982345181        5.1478293029  MEMB      50              0.0000000000
      6046        50  PMPE      H17R           33.8848390510      -17.6959748375        5.4760905348  MEMB      50              0.0000000000
      6047        50  PMPE      H17S           32.6085622505      -16.7793525290        4.3900561841  MEMB      50              0.0000000000
      6048        50  PMPE      C210           32.0317128292      -18.7775106718        5.1462693254  MEMB      50              0.0000000000
      6049        50  PMPE      H10R           32.5773632884      -19.6709431356        5.4185663974  MEMB      50              0.0000000000
      6050        50  PMPE      C211           31.2234160075      -19.0095455628        3.8928722285  MEMB      50              0.0000000000
      6051        50  PMPE      H11R           31.9104529450      -19.5391054714        3.1850486350  MEMB      50              0.0000000000
      6052        50  PMPE      H11S           30.9136624428      -18.0496559266        3.4413282286  MEMB      50              0.0000000000
      6053        50  PMPE      C212           30.0085078385      -19.9366711466        4.0738449210  MEMB      50              0.0000000000
      6054        50  PMPE      H12R           29.1737495695      -19.3633952443        4.5308445802  MEMB      50              0.0000000000
      6055        50  PMPE      H12S           30.2566683752      -20.8183401342        4.7007411490  MEMB      50              0.0000000000
      6056        50  PMPE      C213           29.5738249816      -20.4169880124        2.7112692236  MEMB      50              0.0000000000
      6057        50  PMPE      H13R           28.6902092811      -21.0844904624        2.6543476427  MEMB      50              0.0000000000
      6058        50  PMPE      H13S           30.3967695267      -21.0359697977        2.2577578034  MEMB      50              0.0000000000
      6059        50  PMPE      C214           29.3282652488      -19.2113233925        1.8122193583  MEMB      50              0.0000000000
      6060        50  PMPE      H14R           28.9119975782      -19.8800501570        1.0233069678  MEMB      50              0.0000000000
      6061        50  PMPE      H14S           30.2564958609      -18.6413263765        1.5362674041  MEMB      50              0.0000000000
      6062        50  PMPE      C215           28.1650333667      -18.2714600990        1.8180250404  MEMB      50              0.0000000000
      6063        50  PMPE      H15R           27.7360653620      -18.4041865530        2.8223840157  MEMB      50              0.0000000000
      6064        50  PMPE      H15S           27.4575208437      -18.5708343710        0.9957879305  MEMB      50              0.0000000000
      6065        50  PMPE      C216           28.5544535989      -16.8133753639        1.6130956333  MEMB      50              0.0000000000
      6066        50  PMPE      H16R           27.6704347180      -16.2302977138        1.9355013251  MEMB      50              0.0000000000
      6067        50  PMPE      H16S           29.4193918889      -16.5508560095        2.2592846759  MEMB      50              0.0000000000
      6068        50  PMPE      H16T           28.7996535953      -16.5631192994        0.5544317785  MEMB      50              0.0000000000
      6069        50  PMPE      C33            31.2654544247      -15.1898429094       11.4655132117  MEMB      50              0.0000000000
      6070        50  PMPE      H3X            30.2975615586      -15.6017499583       11.1245019049  MEMB      50              0.0000000000
      6071        50  PMPE      H3Y            31.7053340368      -15.9621461137       12.1423711506  MEMB      50              0.0000000000
      6072        50  PMPE      C34            32.2211154006      -14.9550818664       10.2803687565  MEMB      50              0.0000000000
      6073        50  PMPE      H4X            32.3318972417      -15.8777795174        9.6768012428  MEMB      50              0.0000000000
      6074        50  PMPE      H4Y            33.1992354432      -14.7934858891       10.7733509019  MEMB      50              0.0000000000
      6075        50  PMPE      C35            31.8926376587      -13.6965692588        9.4254564180  MEMB      50              0.0000000000
      6076        50  PMPE      H5X            32.0673769804      -12.8230950391       10.0703694678  MEMB      50              0.0000000000
      6077        50  PMPE      H5Y            30.8104144574      -13.6402936272        9.2071069591  MEMB      50              0.0000000000
      6078        50  PMPE      C36            32.6015702087      -13.5151764518        8.0509815575  MEMB      50              0.0000000000
      6079        50  PMPE      H6X            32.0848691806      -14.2276999525        7.3902231153  MEMB      50              0.0000000000
      6080        50  PMPE      H6Y            33.6662640157      -13.8059467978        7.9541053372  MEMB      50              0.0000000000
      6081        50  PMPE      C37            32.5810618395      -12.0822489060        7.4851815953  MEMB      50              0.0000000000
      6082        50  PMPE      H7X            33.5582895668      -11.5773003453        7.6849406741  MEMB      50              0.0000000000
      6083        50  PMPE      H7Y            31.8010735194      -11.4838224666        8.0096997781  MEMB      50              0.0000000000
      6084        50  PMPE      C38            32.3380353021      -12.1095144159        5.9719953991  MEMB      50              0.0000000000
      6085        50  PMPE      H8X            33.1786718591      -12.5241353101        5.3941649464  MEMB      50              0.0000000000
      6086        50  PMPE      H8Y            32.3594714763      -11.1441719175        5.4830687824  MEMB      50              0.0000000000
      6087        50  PMPE      C39            30.9563767722      -12.6420862992        5.6126653477  MEMB      50              0.0000000000
      6088        50  PMPE      H9X            30.2804634559      -12.7540953814        6.4741236406  MEMB      50              0.0000000000
      6089        50  PMPE      H9Y            31.0927438030      -13.5832549149        5.0412995391  MEMB      50              0.0000000000
      6090        50  PMPE      C310           30.2799343586      -11.7591468859        4.6423612876  MEMB      50              0.0000000000
      6091        50  PMPE      H10X           30.0259694651      -10.7483093531        5.1188859584  MEMB      50              0.0000000000
      6092        50  PMPE      H10Y           29.2895437954      -12.1675342367        4.3287271522  MEMB      50              0.0000000000
      6093        50  PMPE      C311           31.3086256243      -11.7769623173        3.4577286042  MEMB      50              0.0000000000
      6094        50  PMPE      H11X           32.1645650692      -11.1219546649        3.2894127096  MEMB      50              0.0000000000
      6095        50  PMPE      H11Y           30.6748740439      -10.9168856019        3.4075008257  MEMB      50              0.0000000000
      6096        50  PMPE      C312           31.2907331017      -12.9256589972        2.2809003161  MEMB      50              0.0000000000
      6097        50  PMPE      H12X           30.3888240806      -13.4771171811        2.5708301126  MEMB      50              0.0000000000
      6098        50  PMPE      H12Y           32.2664788939      -13.3776577318        2.5839511499  MEMB      50              0.0000000000
      6099        50  PMPE      C313           31.0599959824      -12.7367177563        0.6034673408  MEMB      50              0.0000000000
      6100        50  PMPE      H13X           31.3621960271      -13.6055423866        0.0420656680  MEMB      50              0.0000000000
      6101        50  PMPE      H13Y           31.8892362917      -11.9952958713        0.4147949959  MEMB      50              0.0000000000
      6102        50  PMPE      C314           29.5869074580      -12.3663424703       -0.2257526351  MEMB      50              0.0000000000
      6103        50  PMPE      H14X           29.5654538077      -11.8097300904       -1.1567160595  MEMB      50              0.0000000000
      6104        50  PMPE      H14Y           28.9568943081      -11.4342386592       -0.1936925316  MEMB      50              0.0000000000
      6105        50  PMPE      C315           28.2908292885      -12.9337923883        0.2553731684  MEMB      50              0.0000000000
      6106        50  PMPE      H15X           27.3624279815      -12.3201087541        0.0249900829  MEMB      50              0.0000000000
      6107        50  PMPE      H15Y           28.2751257933      -13.1610052417        1.3417298907  MEMB      50              0.0000000000
      6108        50  PMPE      C316           28.5126936802      -14.0352707776       -0.6710364364  MEMB      50              0.0000000000
      6109        50  PMPE      H16X           28.7694871069      -13.6306388136       -1.6953083755  MEMB      50              0.0000000000
      6110        50  PMPE      H16Y           27.6156006471      -14.6363663658       -0.6664091430  MEMB      50              0.0000000000
      6111        50  PMPE      H16Z           29.4005001790      -14.5761378968       -0.2682881927  MEMB      50              0.0000000000
      6112        51  PMPE      N             -18.8738392482       24.6999218902       20.5036967048  MEMB      51              0.0000000000
      6113        51  PMPE      HN1           -18.8551916884       25.5687629286       21.0830097088  MEMB      51              0.0000000000
      6114        51  PMPE      HN2           -19.4342558994       24.8842497745       19.6355359942  MEMB      51              0.0000000000
      6115        51  PMPE      HN3           -19.3580252629       23.9459378480       21.0197492659  MEMB      51              0.0000000000
      6116        51  PMPE      C12           -17.4749937396       24.2815434936       20.1302001275  MEMB      51              0.0000000000
      6117        51  PMPE      H12A          -17.6453851924       23.4967631140       19.4003309577  MEMB      51              0.0000000000
      6118        51  PMPE      H12B          -16.9549222355       23.8045525873       20.9761367099  MEMB      51              0.0000000000
      6119        51  PMPE      C11           -16.5957830967       25.4125637664       19.5743270247  MEMB      51              0.0000000000
      6120        51  PMPE      H11A          -15.5998402507       25.0205010855       19.3248922236  MEMB      51              0.0000000000
      6121        51  PMPE      H11B          -16.3693242826       26.1676189090       20.3599284770  MEMB      51              0.0000000000
      6122        51  PMPE      P             -17.6559005515       27.4678816374       18.3596626477  MEMB      51              0.0000000000
      6123        51  PMPE      O13           -18.5879522217       27.6252379652       19.5056833956  MEMB      51              0.0000000000
      6124        51  PMPE      O14           -18.1623789746       27.7403183720       17.0077926835  MEMB      51              0.0000000000
      6125        51  PMPE      O11           -16.3144968052       28.2646604838       18.6602024545  MEMB      51              0.0000000000
      6126        51  PMPE      O12           -17.1649779150       25.9520204515       18.3925536923  MEMB      51              0.0000000000
      6127        51  PMPE      C1            -15.1685558609       28.0649702732       17.8211971296  MEMB      51              0.0000000000
      6128        51  PMPE      HA            -15.3357679320       27.3139135226       17.0062297386  MEMB      51              0.0000000000
      6129        51  PMPE      HB            -14.3392192926       27.6787413406       18.4504818805  MEMB      51              0.0000000000
      6130        51  PMPE      C2            -14.7227827987       29.3485405716       17.0640472755  MEMB      51              0.0000000000
      6131        51  PMPE      HS            -14.0805943020       29.9522575783       17.7498375638  MEMB      51              0.0000000000
      6132        51  PMPE      O21           -15.8586873264       30.1101536520       16.6069844136  MEMB      51              0.0000000000
      6133        51  PMPE      C21           -16.3666579704       30.9683575581       17.4705020063  MEMB      51              0.0000000000
      6134        51  PMPE      O22           -15.8478007744       31.2908894784       18.5314855575  MEMB      51              0.0000000000
      6135        51  PMPE      C22           -17.6349764495       31.6082314289       16.9269728376  MEMB      51              0.0000000000
      6136        51  PMPE      H2R           -17.3936232154       32.6495810206       17.0209262615  MEMB      51              0.0000000000
      6137        51  PMPE      H2S           -18.4739308871       31.4591478466       17.6259721651  MEMB      51              0.0000000000
      6138        51  PMPE      C3            -13.8335783663       28.9510779680       15.8446234804  MEMB      51              0.0000000000
      6139        51  PMPE      HX            -13.1974179048       28.0800433437       16.1248063713  MEMB      51              0.0000000000
      6140        51  PMPE      HY            -13.1171098252       29.7665941314       15.7011613500  MEMB      51              0.0000000000
      6141        51  PMPE      O31           -14.6311873641       28.7257880506       14.6468034488  MEMB      51              0.0000000000
      6142        51  PMPE      C31           -13.9674271659       28.1538065182       13.6515947603  MEMB      51              0.0000000000
      6143        51  PMPE      O32           -12.8041027185       27.8278589852       13.6926361300  MEMB      51              0.0000000000
      6144        51  PMPE      C32           -14.7262452349       28.1518165992       12.3430396519  MEMB      51              0.0000000000
      6145        51  PMPE      H2X           -14.3138870481       29.0853530515       11.9471201608  MEMB      51              0.0000000000
      6146        51  PMPE      H2Y           -15.8071007632       28.3267625570       12.3788463793  MEMB      51              0.0000000000
      6147        51  PMPE      C23           -18.0647331640       31.2743208235       15.4772372578  MEMB      51              0.0000000000
      6148        51  PMPE      H3R           -18.3006051144       30.1855627386       15.4573900470  MEMB      51              0.0000000000
      6149        51  PMPE      H3S           -17.2367244101       31.4933226373       14.7688853495  MEMB      51              0.0000000000
      6150        51  PMPE      C24           -19.3662167480       31.9849923945       15.0505654254  MEMB      51              0.0000000000
      6151        51  PMPE      H4R           -19.2074534636       33.0599826324       14.8096253550  MEMB      51              0.0000000000
      6152        51  PMPE      H4S           -20.0596155495       31.9629556917       15.9277745860  MEMB      51              0.0000000000
      6153        51  PMPE      C25           -20.1161098539       31.2570451624       13.9192526563  MEMB      51              0.0000000000
      6154        51  PMPE      H5R           -21.1589755653       31.6563984665       13.9449449384  MEMB      51              0.0000000000
      6155        51  PMPE      H5S           -20.2379381700       30.1839445561       14.1732634772  MEMB      51              0.0000000000
      6156        51  PMPE      C26           -19.5324316790       31.4324392400       12.4947933558  MEMB      51              0.0000000000
      6157        51  PMPE      H6R           -19.3011721038       32.5042551373       12.3356776130  MEMB      51              0.0000000000
      6158        51  PMPE      H6S           -20.3571514070       31.1422848620       11.8101877783  MEMB      51              0.0000000000
      6159        51  PMPE      C27           -18.2591178169       30.6376114732       12.1245398946  MEMB      51              0.0000000000
      6160        51  PMPE      H7R           -18.3091184765       29.6192904299       12.5673725292  MEMB      51              0.0000000000
      6161        51  PMPE      H7S           -17.3762061039       31.1500722693       12.5797824967  MEMB      51              0.0000000000
      6162        51  PMPE      C28           -18.0118542246       30.4421872237       10.6039476475  MEMB      51              0.0000000000
      6163        51  PMPE      H8R           -17.3400752521       29.5583453025       10.5148594934  MEMB      51              0.0000000000
      6164        51  PMPE      H8S           -17.5139056033       31.3398007203       10.1739347111  MEMB      51              0.0000000000
      6165        51  PMPE      C29           -19.2597441220       30.2584017353        9.7356946497  MEMB      51              0.0000000000
      6166        51  PMPE      H9R           -20.0179524764       31.0576918505        9.7312980612  MEMB      51              0.0000000000
      6167        51  PMPE      C217          -19.8348493414       28.8749931773        9.7422273334  MEMB      51              0.0000000000
      6168        51  PMPE      H17R          -20.9120450073       28.8654750717        9.6053743886  MEMB      51              0.0000000000
      6169        51  PMPE      H17S          -19.2549625717       28.1807502731       10.3470451988  MEMB      51              0.0000000000
      6170        51  PMPE      C210          -19.2321684047       29.3967992771        8.4856654694  MEMB      51              0.0000000000
      6171        51  PMPE      H10R          -20.0416585956       29.5198228903        7.7437724533  MEMB      51              0.0000000000
      6172        51  PMPE      C211          -18.0629176995       28.5463074082        8.0717649254  MEMB      51              0.0000000000
      6173        51  PMPE      H11R          -18.3833231651       27.8509739386        7.2665983584  MEMB      51              0.0000000000
      6174        51  PMPE      H11S          -17.7010045731       27.9282719917        8.9196657267  MEMB      51              0.0000000000
      6175        51  PMPE      C212          -16.9050756516       29.4310303705        7.6401837171  MEMB      51              0.0000000000
      6176        51  PMPE      H12R          -16.1062982283       28.7383240814        7.3320404855  MEMB      51              0.0000000000
      6177        51  PMPE      H12S          -16.5694075423       30.0100075659        8.5217806838  MEMB      51              0.0000000000
      6178        51  PMPE      C213          -17.1601980336       30.4435476993        6.5317893147  MEMB      51              0.0000000000
      6179        51  PMPE      H13R          -16.2378015568       31.0706044344        6.4346951141  MEMB      51              0.0000000000
      6180        51  PMPE      H13S          -18.0025986690       31.1266690219        6.7811811785  MEMB      51              0.0000000000
      6181        51  PMPE      C214          -17.3882613412       29.8042212817        5.1802671949  MEMB      51              0.0000000000
      6182        51  PMPE      H14R          -18.3093396152       29.1946908750        5.0971293232  MEMB      51              0.0000000000
      6183        51  PMPE      H14S          -16.4924125698       29.2251591890        4.8396342236  MEMB      51              0.0000000000
      6184        51  PMPE      C215          -17.5837648030       30.8719549666        4.1792804167  MEMB      51              0.0000000000
      6185        51  PMPE      H15R          -16.7746036645       31.6062409845        4.4177435801  MEMB      51              0.0000000000
      6186        51  PMPE      H15S          -18.5072395731       31.4626252436        4.3243629379  MEMB      51              0.0000000000
      6187        51  PMPE      C216          -17.6410282904       30.1887655646        2.8182479827  MEMB      51              0.0000000000
      6188        51  PMPE      H16R          -17.0547817770       29.2923732889        2.5658651323  MEMB      51              0.0000000000
      6189        51  PMPE      H16S          -18.5398120139       30.4607513923        2.2300877495  MEMB      51              0.0000000000
      6190        51  PMPE      H16T          -16.8735924390       30.5940939183        2.2259532327  MEMB      51              0.0000000000
      6191        51  PMPE      C33           -14.3836862361       26.9333292653       11.4677207829  MEMB      51              0.0000000000
      6192        51  PMPE      H3X           -14.6588530801       25.9945245014       11.9992633871  MEMB      51              0.0000000000
      6193        51  PMPE      H3Y           -13.2981160557       26.9011019512       11.2077378288  MEMB      51              0.0000000000
      6194        51  PMPE      C34           -15.0901774263       26.9703057565       10.1309001855  MEMB      51              0.0000000000
      6195        51  PMPE      H4X           -14.8295842586       27.9014616281        9.6531452934  MEMB      51              0.0000000000
      6196        51  PMPE      H4Y           -16.1519016807       27.2208910645       10.2183841646  MEMB      51              0.0000000000
      6197        51  PMPE      C35           -14.8113195513       25.6868784131        9.3488271077  MEMB      51              0.0000000000
      6198        51  PMPE      H5X           -13.8443462363       25.1932812522        9.5761810919  MEMB      51              0.0000000000
      6199        51  PMPE      H5Y           -14.8792465320       25.8082463011        8.2436973174  MEMB      51              0.0000000000
      6200        51  PMPE      C36           -15.8775091067       24.7560885950        9.7769840068  MEMB      51              0.0000000000
      6201        51  PMPE      H6X           -15.9926131954       24.7034952188       10.8925665112  MEMB      51              0.0000000000
      6202        51  PMPE      H6Y           -15.6969851266       23.7196545420        9.4024354192  MEMB      51              0.0000000000
      6203        51  PMPE      C37           -17.1585452493       25.2631401966        9.1689123116  MEMB      51              0.0000000000
      6204        51  PMPE      H7X           -17.7789537261       26.0752825325        9.5747666745  MEMB      51              0.0000000000
      6205        51  PMPE      H7Y           -17.5825709695       24.4820535722        9.6973934977  MEMB      51              0.0000000000
      6206        51  PMPE      C38           -17.2585496280       25.0802920463        7.6751820497  MEMB      51              0.0000000000
      6207        51  PMPE      H8X           -16.8366191103       24.0791407022        7.3664773234  MEMB      51              0.0000000000
      6208        51  PMPE      H8Y           -16.7868031012       25.9721353668        7.2513432184  MEMB      51              0.0000000000
      6209        51  PMPE      C39           -18.6271171832       25.2327747680        7.1005272141  MEMB      51              0.0000000000
      6210        51  PMPE      H9X           -19.4090404420       25.7924185008        7.6468597972  MEMB      51              0.0000000000
      6211        51  PMPE      H9Y           -18.8807238106       24.2032141235        7.1871003887  MEMB      51              0.0000000000
      6212        51  PMPE      C310          -18.7852976874       25.1477517870        5.6493264879  MEMB      51              0.0000000000
      6213        51  PMPE      H10X          -18.2724821940       25.9125729254        5.0915962070  MEMB      51              0.0000000000
      6214        51  PMPE      H10Y          -19.7928443354       25.4725669924        5.4098962813  MEMB      51              0.0000000000
      6215        51  PMPE      C311          -18.4195441085       23.8172081412        5.0879182238  MEMB      51              0.0000000000
      6216        51  PMPE      H11X          -18.8802019911       22.8718621029        5.4894128645  MEMB      51              0.0000000000
      6217        51  PMPE      H11Y          -17.3476134356       23.5454936415        5.0260644326  MEMB      51              0.0000000000
      6218        51  PMPE      C312          -18.8741302774       24.1224275695        3.7113344013  MEMB      51              0.0000000000
      6219        51  PMPE      H12X          -19.9444898535       24.2441356415        3.4963438918  MEMB      51              0.0000000000
      6220        51  PMPE      H12Y          -18.6249213564       23.1176224271        3.6281429291  MEMB      51              0.0000000000
      6221        51  PMPE      C313          -17.9090102929       24.5829153260        2.6739480667  MEMB      51              0.0000000000
      6222        51  PMPE      H13X          -17.7153317390       23.8323523981        1.8634195882  MEMB      51              0.0000000000
      6223        51  PMPE      H13Y          -16.9532860244       24.7214274153        3.2015535607  MEMB      51              0.0000000000
      6224        51  PMPE      C314          -18.5968823916       25.7426886876        2.0276597189  MEMB      51              0.0000000000
      6225        51  PMPE      H14X          -19.1419559000       26.3845454690        2.7517296148  MEMB      51              0.0000000000
      6226        51  PMPE      H14Y          -19.3684608466       25.2327241228        1.4312572828  MEMB      51              0.0000000000
      6227        51  PMPE      C315          -17.5946077698       26.6145189838        1.3313750776  MEMB      51              0.0000000000
      6228        51  PMPE      H15X          -16.6447123178       26.4928173744        1.8876681706  MEMB      51              0.0000000000
      6229        51  PMPE      H15Y          -17.9519854436       27.6643724878        1.2823123951  MEMB      51              0.0000000000
      6230        51  PMPE      C316          -17.2303650669       26.2761734607       -0.0442949448  MEMB      51              0.0000000000
      6231        51  PMPE      H16X          -16.3927709654       26.8660598473       -0.4326155248  MEMB      51              0.0000000000
      6232        51  PMPE      H16Y          -17.9657713264       26.6888114562       -0.7434565237  MEMB      51              0.0000000000
      6233        51  PMPE      H16Z          -17.0961462364       25.1806919303       -0.2244407532  MEMB      51              0.0000000000
      6234        52  PMPE      N              20.2804552328       27.0776427370       16.2281302329  MEMB      52              0.0000000000
      6235        52  PMPE      HN1            20.0838863831       26.0989070464       15.9360529222  MEMB      52              0.0000000000
      6236        52  PMPE      HN2            19.3591544738       27.5210750242       16.4275041576  MEMB      52              0.0000000000
      6237        52  PMPE      HN3            20.7474574660       27.5980199750       15.4513485279  MEMB      52              0.0000000000
      6238        52  PMPE      C12            21.1425973831       27.0443459878       17.4781024850  MEMB      52              0.0000000000
      6239        52  PMPE      H12A           21.0130634296       28.0063106503       18.0187300430  MEMB      52              0.0000000000
      6240        52  PMPE      H12B           22.1973458974       26.9452904572       17.1497024743  MEMB      52              0.0000000000
      6241        52  PMPE      C11            20.8279048140       25.8655044357       18.4254520437  MEMB      52              0.0000000000
      6242        52  PMPE      H11A           21.4744141433       26.0057666742       19.3332710764  MEMB      52              0.0000000000
      6243        52  PMPE      H11B           21.1214651854       24.9007949187       17.9542814261  MEMB      52              0.0000000000
      6244        52  PMPE      P              18.9621579138       25.0788222932       20.0702567066  MEMB      52              0.0000000000
      6245        52  PMPE      O13            17.4995182068       25.2529746437       20.2053808746  MEMB      52              0.0000000000
      6246        52  PMPE      O14            19.8389337851       25.4690921068       21.1962453782  MEMB      52              0.0000000000
      6247        52  PMPE      O11            19.2949259407       23.5731486693       19.6954579300  MEMB      52              0.0000000000
      6248        52  PMPE      O12            19.4385705855       25.8377743898       18.7519542577  MEMB      52              0.0000000000
      6249        52  PMPE      C1             18.3359785052       22.6689587334       19.1294804594  MEMB      52              0.0000000000
      6250        52  PMPE      HA             17.7592599227       23.1580874023       18.3121122046  MEMB      52              0.0000000000
      6251        52  PMPE      HB             17.5798144148       22.3505064164       19.8861543462  MEMB      52              0.0000000000
      6252        52  PMPE      C2             19.0316906098       21.3935365896       18.5380388193  MEMB      52              0.0000000000
      6253        52  PMPE      HS             19.4988380606       20.8393123900       19.3799125979  MEMB      52              0.0000000000
      6254        52  PMPE      O21            20.0268994438       21.7858057509       17.5700632997  MEMB      52              0.0000000000
      6255        52  PMPE      C21            20.9290001572       20.8587432642       17.2923923994  MEMB      52              0.0000000000
      6256        52  PMPE      O22            21.1515775972       19.8410768049       17.9287366410  MEMB      52              0.0000000000
      6257        52  PMPE      C22            21.6648834142       21.3399713365       16.0442380400  MEMB      52              0.0000000000
      6258        52  PMPE      H2R            22.5011134303       22.0013685218       16.3505551412  MEMB      52              0.0000000000
      6259        52  PMPE      H2S            20.9454140322       21.9384767136       15.4467075538  MEMB      52              0.0000000000
      6260        52  PMPE      C3             17.9780305986       20.4723076900       17.8731348696  MEMB      52              0.0000000000
      6261        52  PMPE      HX             17.2966694112       20.1256604056       18.6799154447  MEMB      52              0.0000000000
      6262        52  PMPE      HY             18.4361175115       19.5694804324       17.4136254689  MEMB      52              0.0000000000
      6263        52  PMPE      O31            17.2317502969       21.2714221278       16.9579288619  MEMB      52              0.0000000000
      6264        52  PMPE      C31            17.0956231699       20.9148297843       15.7267615113  MEMB      52              0.0000000000
      6265        52  PMPE      O32            17.5640373996       19.9402714145       15.1563558959  MEMB      52              0.0000000000
      6266        52  PMPE      C32            16.2236212683       22.0602582862       15.1648983252  MEMB      52              0.0000000000
      6267        52  PMPE      H2X            16.5088111026       23.0458196072       15.5366539116  MEMB      52              0.0000000000
      6268        52  PMPE      H2Y            15.1572813967       21.7685442384       15.3434406948  MEMB      52              0.0000000000
      6269        52  PMPE      C23            22.1632837384       20.1479353589       15.2105099047  MEMB      52              0.0000000000
      6270        52  PMPE      H3R            21.3234811140       19.4370370907       15.0321466174  MEMB      52              0.0000000000
      6271        52  PMPE      H3S            22.9278495008       19.6083601345       15.8105390824  MEMB      52              0.0000000000
      6272        52  PMPE      C24            22.7125044019       20.5220458515       13.8196978314  MEMB      52              0.0000000000
      6273        52  PMPE      H4R            22.9605349829       19.5562664128       13.3297869211  MEMB      52              0.0000000000
      6274        52  PMPE      H4S            23.6516631743       21.1121743909       13.9296993104  MEMB      52              0.0000000000
      6275        52  PMPE      C25            21.6680057067       21.2513783091       12.9459063049  MEMB      52              0.0000000000
      6276        52  PMPE      H5R            21.8563621836       22.3480785201       12.9716514531  MEMB      52              0.0000000000
      6277        52  PMPE      H5S            20.6750203972       21.0385305568       13.4042268975  MEMB      52              0.0000000000
      6278        52  PMPE      C26            21.5114443676       20.8038368494       11.4846611272  MEMB      52              0.0000000000
      6279        52  PMPE      H6R            20.7233635645       21.4354340530       11.0168828970  MEMB      52              0.0000000000
      6280        52  PMPE      H6S            21.1179166936       19.7679288185       11.4094841784  MEMB      52              0.0000000000
      6281        52  PMPE      C27            22.7965526469       20.8390313595       10.6740149408  MEMB      52              0.0000000000
      6282        52  PMPE      H7R            23.4458483634       20.0085045192       11.0289221081  MEMB      52              0.0000000000
      6283        52  PMPE      H7S            23.3632497796       21.7924814273       10.8095389835  MEMB      52              0.0000000000
      6284        52  PMPE      C28            22.4907696917       20.6570635770        9.1863903933  MEMB      52              0.0000000000
      6285        52  PMPE      H8R            22.0748429569       19.6790649566        8.9167746938  MEMB      52              0.0000000000
      6286        52  PMPE      H8S            23.5096223824       20.6607567114        8.7504935308  MEMB      52              0.0000000000
      6287        52  PMPE      C29            21.5344270394       21.7733853856        8.7185990517  MEMB      52              0.0000000000
      6288        52  PMPE      H9R            21.7385743080       22.7816431838        9.1464612042  MEMB      52              0.0000000000
      6289        52  PMPE      C217           20.0868491737       21.4743747822        8.5395006555  MEMB      52              0.0000000000
      6290        52  PMPE      H17R           19.4825873212       22.3497296122        8.7773880385  MEMB      52              0.0000000000
      6291        52  PMPE      H17S           19.8876335422       20.4194274793        8.6011712719  MEMB      52              0.0000000000
      6292        52  PMPE      C210           20.8435893971       21.7303470636        7.3083095555  MEMB      52              0.0000000000
      6293        52  PMPE      H10R           20.7216790137       22.7598258166        6.8916658514  MEMB      52              0.0000000000
      6294        52  PMPE      C211           21.1853477423       20.5514914461        6.3402467837  MEMB      52              0.0000000000
      6295        52  PMPE      H11R           21.1962766569       19.5377055776        6.7223252508  MEMB      52              0.0000000000
      6296        52  PMPE      H11S           22.2685596812       20.4533142609        6.2893276686  MEMB      52              0.0000000000
      6297        52  PMPE      C212           20.5638160753       20.7162204985        4.9105134341  MEMB      52              0.0000000000
      6298        52  PMPE      H12R           20.4957713513       21.7349656336        4.4839733307  MEMB      52              0.0000000000
      6299        52  PMPE      H12S           19.5469557723       20.5534278905        5.0978690549  MEMB      52              0.0000000000
      6300        52  PMPE      C213           21.0664995398       19.7233693354        3.8438259928  MEMB      52              0.0000000000
      6301        52  PMPE      H13R           21.0721717389       18.7049887383        4.2438481549  MEMB      52              0.0000000000
      6302        52  PMPE      H13S           22.0473819572       19.8579061364        3.3800687265  MEMB      52              0.0000000000
      6303        52  PMPE      C214           20.5377419209       19.8037059668        2.4783412129  MEMB      52              0.0000000000
      6304        52  PMPE      H14R           19.8105691459       19.0883079362        2.5804934638  MEMB      52              0.0000000000
      6305        52  PMPE      H14S           20.8727043800       19.0173204080        1.7790421597  MEMB      52              0.0000000000
      6306        52  PMPE      C215           20.1304950824       21.1568978556        1.8576925397  MEMB      52              0.0000000000
      6307        52  PMPE      H15R           20.0175520924       22.1789177941        2.2867390134  MEMB      52              0.0000000000
      6308        52  PMPE      H15S           19.6513807311       21.1672136050        0.8399044137  MEMB      52              0.0000000000
      6309        52  PMPE      C216           21.2176870180       21.1443382971        1.2277426338  MEMB      52              0.0000000000
      6310        52  PMPE      H16R           22.1914116342       20.9190819698        1.7090520546  MEMB      52              0.0000000000
      6311        52  PMPE      H16S           21.6655791394       20.2611561570        0.8884932651  MEMB      52              0.0000000000
      6312        52  PMPE      H16T           21.1631788535       21.9748937982        0.4715694680  MEMB      52              0.0000000000
      6313        52  PMPE      C33            16.3531971955       22.3205230287       13.7142160992  MEMB      52              0.0000000000
      6314        52  PMPE      H3X            15.5149212244       22.8407725261       13.1956421609  MEMB      52              0.0000000000
      6315        52  PMPE      H3Y            15.9912386080       21.3351389790       13.6275664008  MEMB      52              0.0000000000
      6316        52  PMPE      C34            17.7697467788       22.5718357729       13.1705287355  MEMB      52              0.0000000000
      6317        52  PMPE      H4X            18.0696612763       22.5467722126       12.1014044582  MEMB      52              0.0000000000
      6318        52  PMPE      H4Y            18.5117994968       21.8388770170       13.5100329982  MEMB      52              0.0000000000
      6319        52  PMPE      C35            17.8913627743       24.0252361448       12.9527262808  MEMB      52              0.0000000000
      6320        52  PMPE      H5X            17.6515942748       24.3939197009       13.9563606320  MEMB      52              0.0000000000
      6321        52  PMPE      H5Y            17.1231484358       24.4066509809       12.2168208597  MEMB      52              0.0000000000
      6322        52  PMPE      C36            19.3022897540       24.3078862930       12.4957923935  MEMB      52              0.0000000000
      6323        52  PMPE      H6X            19.4989551381       23.9265326099       11.4621795031  MEMB      52              0.0000000000
      6324        52  PMPE      H6Y            19.9587207576       23.7174697762       13.1746744275  MEMB      52              0.0000000000
      6325        52  PMPE      C37            19.4653714616       25.7983319894       12.6361401247  MEMB      52              0.0000000000
      6326        52  PMPE      H7X            19.0022637111       26.0807097406       13.6111986562  MEMB      52              0.0000000000
      6327        52  PMPE      H7Y            18.8648066006       26.2861504349       11.8348398372  MEMB      52              0.0000000000
      6328        52  PMPE      C38            20.9006336900       26.2963740292       12.6067175992  MEMB      52              0.0000000000
      6329        52  PMPE      H8X            21.4407296554       25.9269108320       13.5066447473  MEMB      52              0.0000000000
      6330        52  PMPE      H8Y            20.8405539322       27.4081356494       12.6277391120  MEMB      52              0.0000000000
      6331        52  PMPE      C39            21.7457452308       25.8519348313       11.4077295297  MEMB      52              0.0000000000
      6332        52  PMPE      H9X            21.8738398579       24.7462800789       11.4498272675  MEMB      52              0.0000000000
      6333        52  PMPE      H9Y            22.7537687708       26.3044519809       11.5507897209  MEMB      52              0.0000000000
      6334        52  PMPE      C310           21.2061408448       26.2655584061       10.0291925260  MEMB      52              0.0000000000
      6335        52  PMPE      H10X           20.8717780958       27.3282307148       10.0476646839  MEMB      52              0.0000000000
      6336        52  PMPE      H10Y           20.3027951411       25.6630025765        9.7886458810  MEMB      52              0.0000000000
      6337        52  PMPE      C311           22.2479932198       26.0559014128        8.9145907124  MEMB      52              0.0000000000
      6338        52  PMPE      H11X           22.6391824637       25.0124906966        8.9536126580  MEMB      52              0.0000000000
      6339        52  PMPE      H11Y           23.1264810177       26.7148796175        9.0815029159  MEMB      52              0.0000000000
      6340        52  PMPE      C312           21.6344390914       26.2449744955        7.5186118338  MEMB      52              0.0000000000
      6341        52  PMPE      H12X           21.1432508929       27.2226187833        7.3817359065  MEMB      52              0.0000000000
      6342        52  PMPE      H12Y           20.9004479791       25.4082926177        7.4043794617  MEMB      52              0.0000000000
      6343        52  PMPE      C313           22.6302723384       26.1846126259        6.3841800326  MEMB      52              0.0000000000
      6344        52  PMPE      H13X           23.4564417028       25.6321379238        6.8891379651  MEMB      52              0.0000000000
      6345        52  PMPE      H13Y           23.2339477036       27.0728787694        6.1774668273  MEMB      52              0.0000000000
      6346        52  PMPE      C314           21.9742504884       25.6222405818        5.0691035616  MEMB      52              0.0000000000
      6347        52  PMPE      H14X           21.1124317392       26.2096280421        4.7253201336  MEMB      52              0.0000000000
      6348        52  PMPE      H14Y           21.4586838447       24.6593939810        5.2027019697  MEMB      52              0.0000000000
      6349        52  PMPE      C315           22.9762888670       25.4643954464        3.9226388520  MEMB      52              0.0000000000
      6350        52  PMPE      H15X           23.7366307921       24.6431065314        3.9220542764  MEMB      52              0.0000000000
      6351        52  PMPE      H15Y           23.6111227440       26.3655114492        4.0009132246  MEMB      52              0.0000000000
      6352        52  PMPE      C316           22.2464231221       25.4149743029        2.6068398377  MEMB      52              0.0000000000
      6353        52  PMPE      H16X           23.0164633852       25.5577573035        1.8202531252  MEMB      52              0.0000000000
      6354        52  PMPE      H16Y           21.3101176670       25.9664688251        2.5724257090  MEMB      52              0.0000000000
      6355        52  PMPE      H16Z           21.6435480535       24.6248975322        2.2248573815  MEMB      52              0.0000000000
      6356        53  PMPE      N              24.7518975982       17.7475663812       20.8083323255  MEMB      53              0.0000000000
      6357        53  PMPE      HN1            24.4960364878       17.9078736232       21.8091916779  MEMB      53              0.0000000000
      6358        53  PMPE      HN2            24.6088194646       16.7820779737       20.4707924067  MEMB      53              0.0000000000
      6359        53  PMPE      HN3            25.7337690413       18.0818699585       20.6844472513  MEMB      53              0.0000000000
      6360        53  PMPE      C12            23.9117971135       18.5970191810       19.9010840418  MEMB      53              0.0000000000
      6361        53  PMPE      H12A           23.7046003267       19.5451954090       20.4386680774  MEMB      53              0.0000000000
      6362        53  PMPE      H12B           22.9677868288       18.0523780968       19.7139166316  MEMB      53              0.0000000000
      6363        53  PMPE      C11            24.6890928036       18.9572589391       18.6354144640  MEMB      53              0.0000000000
      6364        53  PMPE      H11A           24.0039384991       19.5446878279       17.9752174419  MEMB      53              0.0000000000
      6365        53  PMPE      H11B           25.0234810036       18.0721976871       18.0450449523  MEMB      53              0.0000000000
      6366        53  PMPE      P              26.1083553143       21.2015929335       18.5816376490  MEMB      53              0.0000000000
      6367        53  PMPE      O13            27.3599509156       21.5953154456       19.2700075003  MEMB      53              0.0000000000
      6368        53  PMPE      O14            24.9209297489       22.0473301699       18.8245528928  MEMB      53              0.0000000000
      6369        53  PMPE      O11            26.3474974376       21.0075984906       17.0126422567  MEMB      53              0.0000000000
      6370        53  PMPE      O12            25.8176320692       19.7042640838       19.0627952049  MEMB      53              0.0000000000
      6371        53  PMPE      C1             27.6124061969       20.4420298705       16.6265437593  MEMB      53              0.0000000000
      6372        53  PMPE      HA             27.8008570439       19.5032336552       17.1987032382  MEMB      53              0.0000000000
      6373        53  PMPE      HB             28.4449317804       21.1634411095       16.8020562636  MEMB      53              0.0000000000
      6374        53  PMPE      C2             27.6872111255       20.0798344895       15.1161282109  MEMB      53              0.0000000000
      6375        53  PMPE      HS             28.7350277292       19.7445740236       14.9191042841  MEMB      53              0.0000000000
      6376        53  PMPE      O21            27.3246783352       21.2364261835       14.3348455518  MEMB      53              0.0000000000
      6377        53  PMPE      C21            27.9590989868       21.4237156844       13.1967554023  MEMB      53              0.0000000000
      6378        53  PMPE      O22            28.7734405685       20.6703200851       12.6935027549  MEMB      53              0.0000000000
      6379        53  PMPE      C22            27.5670743037       22.7976922944       12.6465502281  MEMB      53              0.0000000000
      6380        53  PMPE      H2R            28.2944709306       23.5327853523       13.0501842074  MEMB      53              0.0000000000
      6381        53  PMPE      H2S            26.5646598356       23.1207640226       12.9958354528  MEMB      53              0.0000000000
      6382        53  PMPE      C3             26.7323375720       18.8797571076       14.8796899346  MEMB      53              0.0000000000
      6383        53  PMPE      HX             25.7847420599       19.1205973248       15.4072673180  MEMB      53              0.0000000000
      6384        53  PMPE      HY             27.2067952409       18.0061068885       15.3937659310  MEMB      53              0.0000000000
      6385        53  PMPE      O31            26.3914477399       18.6484858751       13.5003440743  MEMB      53              0.0000000000
      6386        53  PMPE      C31            27.1335996086       17.7646720973       12.8656909791  MEMB      53              0.0000000000
      6387        53  PMPE      O32            28.0600632732       17.1322494964       13.3428963759  MEMB      53              0.0000000000
      6388        53  PMPE      C32            26.6407903045       17.6543396080       11.4214229845  MEMB      53              0.0000000000
      6389        53  PMPE      H2X            26.5205794153       18.6662226702       10.9957539673  MEMB      53              0.0000000000
      6390        53  PMPE      H2Y            25.6733504174       17.1091194352       11.3837819567  MEMB      53              0.0000000000
      6391        53  PMPE      C23            27.5611856829       22.7516751498       11.1109590191  MEMB      53              0.0000000000
      6392        53  PMPE      H3R            28.4513105054       22.2065372636       10.7252362899  MEMB      53              0.0000000000
      6393        53  PMPE      H3S            27.6233866348       23.7935574589       10.7275273090  MEMB      53              0.0000000000
      6394        53  PMPE      C24            26.3021305085       22.0680455881       10.5621480805  MEMB      53              0.0000000000
      6395        53  PMPE      H4R            25.3877665402       22.5180444386       11.0065129538  MEMB      53              0.0000000000
      6396        53  PMPE      H4S            26.2879692711       21.0009956735       10.8907119823  MEMB      53              0.0000000000
      6397        53  PMPE      C25            26.1994855464       22.1711693413        9.0290618751  MEMB      53              0.0000000000
      6398        53  PMPE      H5R            25.5130082955       21.3535927498        8.7196883599  MEMB      53              0.0000000000
      6399        53  PMPE      H5S            27.1770216972       22.0308661712        8.5201462352  MEMB      53              0.0000000000
      6400        53  PMPE      C26            25.6402804304       23.5226433787        8.5516412670  MEMB      53              0.0000000000
      6401        53  PMPE      H6R            26.1013665407       24.3285276106        9.1639782278  MEMB      53              0.0000000000
      6402        53  PMPE      H6S            24.5628797355       23.5148400501        8.8274992058  MEMB      53              0.0000000000
      6403        53  PMPE      C27            25.9211001606       23.8667316172        7.0553886241  MEMB      53              0.0000000000
      6404        53  PMPE      H7R            26.9863956729       23.7188242437        6.8084476585  MEMB      53              0.0000000000
      6405        53  PMPE      H7S            25.6652387456       24.9302244455        6.8384978022  MEMB      53              0.0000000000
      6406        53  PMPE      C28            25.2803614881       23.0244160832        5.9667067500  MEMB      53              0.0000000000
      6407        53  PMPE      H8R            25.4223877388       21.9360589800        6.1227547113  MEMB      53              0.0000000000
      6408        53  PMPE      H8S            25.5318151134       23.3638593525        4.9447872618  MEMB      53              0.0000000000
      6409        53  PMPE      C29            23.8941144013       23.3196053522        5.9692506730  MEMB      53              0.0000000000
      6410        53  PMPE      H9R            23.4748558421       24.1997906786        5.8983245309  MEMB      53              0.0000000000
      6411        53  PMPE      C217           23.2751413726       22.5302467514        6.9194759242  MEMB      53              0.0000000000
      6412        53  PMPE      H17R           22.7005938757       23.2380916102        7.5057989377  MEMB      53              0.0000000000
      6413        53  PMPE      H17S           23.6389683682       21.5558647554        7.1498017061  MEMB      53              0.0000000000
      6414        53  PMPE      C210           22.9087711544       22.4799539169        5.4483548098  MEMB      53              0.0000000000
      6415        53  PMPE      H10R           21.8903359641       22.8445935629        5.2432554264  MEMB      53              0.0000000000
      6416        53  PMPE      C211           23.5679558105       21.4735324820        4.6142359613  MEMB      53              0.0000000000
      6417        53  PMPE      H11R           22.8141406487       20.8116859484        4.5588458373  MEMB      53              0.0000000000
      6418        53  PMPE      H11S           24.1857902549       20.7228365365        5.0809204826  MEMB      53              0.0000000000
      6419        53  PMPE      C212           23.8177147971       21.8840579512        3.2296249792  MEMB      53              0.0000000000
      6420        53  PMPE      H12R           23.9561519746       20.9493322684        2.6287664839  MEMB      53              0.0000000000
      6421        53  PMPE      H12S           24.6446935723       22.5793935158        3.1873112418  MEMB      53              0.0000000000
      6422        53  PMPE      C213           22.7170568419       22.7142570930        2.7324274473  MEMB      53              0.0000000000
      6423        53  PMPE      H13R           22.0480754539       23.3078006517        3.3551493854  MEMB      53              0.0000000000
      6424        53  PMPE      H13S           21.8730331571       22.1323501287        3.0996039508  MEMB      53              0.0000000000
      6425        53  PMPE      C214           22.9504710246       23.0766255343        1.1886815252  MEMB      53              0.0000000000
      6426        53  PMPE      H14R           23.7559018999       23.8163694063        1.2710835511  MEMB      53              0.0000000000
      6427        53  PMPE      H14S           22.0803331562       23.6081462424        0.7206419826  MEMB      53              0.0000000000
      6428        53  PMPE      C215           23.3461793366       22.0461071748        0.0008401795  MEMB      53              0.0000000000
      6429        53  PMPE      H15R           24.1502675617       21.6187819490        0.5082478445  MEMB      53              0.0000000000
      6430        53  PMPE      H15S           23.0249319484       22.5328264731       -0.9607217659  MEMB      53              0.0000000000
      6431        53  PMPE      C216           23.1586489665       20.6857337104       -0.6909280937  MEMB      53              0.0000000000
      6432        53  PMPE      H16R           22.1762726922       20.9212250958       -0.7127581771  MEMB      53              0.0000000000
      6433        53  PMPE      H16S           23.1613518520       20.5280069696       -1.7868071700  MEMB      53              0.0000000000
      6434        53  PMPE      H16T           23.1023040440       19.7733745107       -0.0852759501  MEMB      53              0.0000000000
      6435        53  PMPE      C33            27.6927438697       16.8956986680       10.6176418018  MEMB      53              0.0000000000
      6436        53  PMPE      H3X            27.6714122843       15.8819696891       10.9778071379  MEMB      53              0.0000000000
      6437        53  PMPE      H3Y            28.7239052585       17.2515221174       10.8234127608  MEMB      53              0.0000000000
      6438        53  PMPE      C34            27.4349233446       16.7284021313        9.1356362426  MEMB      53              0.0000000000
      6439        53  PMPE      H4X            26.5375776589       17.2571114678        8.7676750506  MEMB      53              0.0000000000
      6440        53  PMPE      H4Y            27.2702884276       15.6886131186        8.8852093864  MEMB      53              0.0000000000
      6441        53  PMPE      C35            28.6648688182       16.9766007785        8.3483148050  MEMB      53              0.0000000000
      6442        53  PMPE      H5X            28.6578369867       16.4817328342        7.3458388417  MEMB      53              0.0000000000
      6443        53  PMPE      H5Y            29.6297374134       16.8071511700        8.8904733876  MEMB      53              0.0000000000
      6444        53  PMPE      C36            28.6233302954       18.3525899098        7.9963194224  MEMB      53              0.0000000000
      6445        53  PMPE      H6X            28.4411243336       19.0760318552        8.8347956776  MEMB      53              0.0000000000
      6446        53  PMPE      H6Y            27.8076135792       18.5063244050        7.2244399873  MEMB      53              0.0000000000
      6447        53  PMPE      C37            29.9371931943       18.5143062312        7.4195786059  MEMB      53              0.0000000000
      6448        53  PMPE      H7X            30.5107320766       17.8883693498        6.7310443396  MEMB      53              0.0000000000
      6449        53  PMPE      H7Y            30.7340747549       18.5582080388        8.2620310563  MEMB      53              0.0000000000
      6450        53  PMPE      C38            29.2757377494       19.6958505798        6.7263393921  MEMB      53              0.0000000000
      6451        53  PMPE      H8X            30.3124467685       19.6843248037        6.9761382803  MEMB      53              0.0000000000
      6452        53  PMPE      H8Y            28.7893609510       20.5644896007        7.2009264149  MEMB      53              0.0000000000
      6453        53  PMPE      C39            28.7830202582       20.0405703655        5.3423806626  MEMB      53              0.0000000000
      6454        53  PMPE      H9X            29.1263575722       20.9951770482        4.8468035817  MEMB      53              0.0000000000
      6455        53  PMPE      H9Y            27.7396927043       20.2825352892        5.6442549775  MEMB      53              0.0000000000
      6456        53  PMPE      C310           28.9994609362       18.9157951853        4.4028960122  MEMB      53              0.0000000000
      6457        53  PMPE      H10X           28.6675091392       18.0463063893        4.9896124795  MEMB      53              0.0000000000
      6458        53  PMPE      H10Y           29.9999250285       18.6164252716        4.0437596817  MEMB      53              0.0000000000
      6459        53  PMPE      C311           28.4296286616       19.3027142801        3.0969386203  MEMB      53              0.0000000000
      6460        53  PMPE      H11X           28.5256759974       18.3809726782        2.5370326877  MEMB      53              0.0000000000
      6461        53  PMPE      H11Y           29.0326384165       20.0837790683        2.5687134570  MEMB      53              0.0000000000
      6462        53  PMPE      C312           27.0038134129       19.7206302938        3.2902838228  MEMB      53              0.0000000000
      6463        53  PMPE      H12X           26.6436266301       19.9116869654        2.2796160374  MEMB      53              0.0000000000
      6464        53  PMPE      H12Y           26.9524846760       20.6757561269        3.8536371987  MEMB      53              0.0000000000
      6465        53  PMPE      C313           26.1422337335       18.6232941405        3.9157442681  MEMB      53              0.0000000000
      6466        53  PMPE      H13X           25.2536866009       19.1108888946        4.3536888900  MEMB      53              0.0000000000
      6467        53  PMPE      H13Y           26.6474164542       18.1062422227        4.7633543831  MEMB      53              0.0000000000
      6468        53  PMPE      C314           25.8362083986       17.5447768085        2.8635490176  MEMB      53              0.0000000000
      6469        53  PMPE      H14X           25.6157439234       16.5925272972        3.3895688166  MEMB      53              0.0000000000
      6470        53  PMPE      H14Y           26.7500369656       17.4199379255        2.2439743644  MEMB      53              0.0000000000
      6471        53  PMPE      C315           24.6939503967       17.8168042338        1.8897098834  MEMB      53              0.0000000000
      6472        53  PMPE      H15X           24.6240611043       16.9837089760        1.1538377778  MEMB      53              0.0000000000
      6473        53  PMPE      H15Y           24.8521026399       18.7607057351        1.3348540768  MEMB      53              0.0000000000
      6474        53  PMPE      C316           23.3717348166       17.9647226551        2.5755010662  MEMB      53              0.0000000000
      6475        53  PMPE      H16X           23.4907052717       18.6641448342        3.4274128051  MEMB      53              0.0000000000
      6476        53  PMPE      H16Y           22.9990590463       17.0039834370        2.9683197855  MEMB      53              0.0000000000
      6477        53  PMPE      H16Z           22.6583369770       18.3912046706        1.8433286381  MEMB      53              0.0000000000
      6478        54  PMPG      C13           -28.4159349887        8.6548997289       19.6368545223  MEMB      54              0.0000000000
      6479        54  PMPG      H13A          -28.1353722057        9.7177071406       19.4800022460  MEMB      54              0.0000000000
      6480        54  PMPG      H13B          -28.2739890770        8.3824807879       20.7038351298  MEMB      54              0.0000000000
      6481        54  PMPG      OC3           -27.5351258753        7.8965739916       18.8142360610  MEMB      54              0.0000000000
      6482        54  PMPG      HO3           -27.7644749673        8.1628960233       17.9091435901  MEMB      54              0.0000000000
      6483        54  PMPG      C12           -29.9157909182        8.4805622441       19.3008196393  MEMB      54              0.0000000000
      6484        54  PMPG      H12A          -30.3656755422        7.6632360462       19.9004889454  MEMB      54              0.0000000000
      6485        54  PMPG      OC2           -30.0993333117        8.1309170172       17.9477797945  MEMB      54              0.0000000000
      6486        54  PMPG      HO2           -31.0579275366        8.2439765533       17.8352279264  MEMB      54              0.0000000000
      6487        54  PMPG      C11           -30.6884480506        9.7726663928       19.5993550478  MEMB      54              0.0000000000
      6488        54  PMPG      H11A          -30.2074955493       10.6022702986       19.0231692631  MEMB      54              0.0000000000
      6489        54  PMPG      H11B          -30.5976019709        9.9655910409       20.6918813208  MEMB      54              0.0000000000
      6490        54  PMPG      P             -32.9850552031       10.8811218524       19.0802139049  MEMB      54              0.0000000000
      6491        54  PMPG      O13           -32.1437554132       12.0567339670       18.7159847077  MEMB      54              0.0000000000
      6492        54  PMPG      O14           -33.8920596664       11.0251255187       20.2294155920  MEMB      54              0.0000000000
      6493        54  PMPG      O11           -33.7379968165       10.4309338954       17.7987247489  MEMB      54              0.0000000000
      6494        54  PMPG      O12           -32.0533955646        9.6047057504       19.2559904626  MEMB      54              0.0000000000
      6495        54  PMPG      C1            -34.4024479116       11.2229567409       16.8557922254  MEMB      54              0.0000000000
      6496        54  PMPG      HA            -34.0202214507       12.2720673809       16.7934894070  MEMB      54              0.0000000000
      6497        54  PMPG      HB            -35.4509818258       11.2829149564       17.2016014491  MEMB      54              0.0000000000
      6498        54  PMPG      C2            -34.3471214249       10.4675866929       15.4872530854  MEMB      54              0.0000000000
      6499        54  PMPG      HS            -35.1010839202        9.6412843739       15.5652025951  MEMB      54              0.0000000000
      6500        54  PMPG      O21           -33.0377100075       10.1246800390       15.0934640525  MEMB      54              0.0000000000
      6501        54  PMPG      C21           -32.7558486549        8.9623526591       15.5094095767  MEMB      54              0.0000000000
      6502        54  PMPG      O22           -33.4479031361        8.2027957285       16.1620656654  MEMB      54              0.0000000000
      6503        54  PMPG      C22           -31.3670305396        8.6376934611       15.0635025822  MEMB      54              0.0000000000
      6504        54  PMPG      H2R           -30.8961710717        8.1829017332       15.9290702061  MEMB      54              0.0000000000
      6505        54  PMPG      H2S           -30.8111508683        9.5545654319       14.7922013288  MEMB      54              0.0000000000
      6506        54  PMPG      C3            -34.8155375090       11.2059402910       14.2877444214  MEMB      54              0.0000000000
      6507        54  PMPG      HX            -34.4542928858       12.1520402766       14.7379204042  MEMB      54              0.0000000000
      6508        54  PMPG      HY            -35.9115510309       11.0741492244       14.2382665562  MEMB      54              0.0000000000
      6509        54  PMPG      O31           -34.2955414785       10.9115658174       13.0040542912  MEMB      54              0.0000000000
      6510        54  PMPG      C31           -34.9083257988        9.7685849558       12.6126040899  MEMB      54              0.0000000000
      6511        54  PMPG      O32           -35.5424999842        9.0477446312       13.3395370222  MEMB      54              0.0000000000
      6512        54  PMPG      C32           -34.9135552883        9.5928752064       11.1371788803  MEMB      54              0.0000000000
      6513        54  PMPG      H2X           -33.8577573109        9.7625645832       10.8256374950  MEMB      54              0.0000000000
      6514        54  PMPG      H2Y           -35.6705725347       10.2141803261       10.5977609075  MEMB      54              0.0000000000
      6515        54  PMPG      C23           -31.3575988762        7.6104612637       13.9319268998  MEMB      54              0.0000000000
      6516        54  PMPG      H3R           -32.0558291896        7.9899356284       13.1576019963  MEMB      54              0.0000000000
      6517        54  PMPG      H3S           -31.7526211380        6.6398856165       14.3115382447  MEMB      54              0.0000000000
      6518        54  PMPG      C24           -29.9301391499        7.4724480919       13.3982734173  MEMB      54              0.0000000000
      6519        54  PMPG      H4R           -29.2824266674        7.0836889643       14.2242495267  MEMB      54              0.0000000000
      6520        54  PMPG      H4S           -29.5340286548        8.4806776532       13.1510143241  MEMB      54              0.0000000000
      6521        54  PMPG      C25           -29.7474639674        6.5784077547       12.1640180068  MEMB      54              0.0000000000
      6522        54  PMPG      H5R           -29.9990157848        5.5354551415       12.3726708937  MEMB      54              0.0000000000
      6523        54  PMPG      H5S           -28.6849655546        6.6280282068       11.9424011644  MEMB      54              0.0000000000
      6524        54  PMPG      C26           -30.3217358907        7.0116253695       10.8189724983  MEMB      54              0.0000000000
      6525        54  PMPG      H6R           -31.4097496161        6.8433394109       10.8045401127  MEMB      54              0.0000000000
      6526        54  PMPG      H6S           -29.8928284082        6.3619983211       10.0199492722  MEMB      54              0.0000000000
      6527        54  PMPG      C27           -29.9674701904        8.4596732945       10.5080750140  MEMB      54              0.0000000000
      6528        54  PMPG      H7R           -28.9078583922        8.6547390896       10.6535560022  MEMB      54              0.0000000000
      6529        54  PMPG      H7S           -30.4426600919        9.1139465264       11.2635250305  MEMB      54              0.0000000000
      6530        54  PMPG      C28           -30.3069404607        8.8803052518        9.0796111218  MEMB      54              0.0000000000
      6531        54  PMPG      H8R           -31.3535612686        8.5832863922        8.8993667815  MEMB      54              0.0000000000
      6532        54  PMPG      H8S           -29.7784638036        8.3553889128        8.2833889049  MEMB      54              0.0000000000
      6533        54  PMPG      C29           -30.1116066039       10.3760369513        8.9198353440  MEMB      54              0.0000000000
      6534        54  PMPG      H9R           -30.9979490693       10.9855601566        9.0920000641  MEMB      54              0.0000000000
      6535        54  PMPG      C217          -28.7755103889       10.9564736471        9.4020331420  MEMB      54              0.0000000000
      6536        54  PMPG      H17R          -28.9396824596       11.8676042376        9.9564426106  MEMB      54              0.0000000000
      6537        54  PMPG      H17S          -27.9820072432       10.2490798863        9.6025390956  MEMB      54              0.0000000000
      6538        54  PMPG      C210          -29.1652718860       11.0011109741        7.9313919726  MEMB      54              0.0000000000
      6539        54  PMPG      H10R          -29.5247034513       11.9785132831        7.5718880366  MEMB      54              0.0000000000
      6540        54  PMPG      C211          -28.3751805291       10.1012535943        6.9918760317  MEMB      54              0.0000000000
      6541        54  PMPG      H11R          -27.8087057425        9.3544245574        7.5654167691  MEMB      54              0.0000000000
      6542        54  PMPG      H11S          -29.0493800984        9.5517220461        6.3002110927  MEMB      54              0.0000000000
      6543        54  PMPG      C212          -27.3344224993       10.9128122611        6.2306230465  MEMB      54              0.0000000000
      6544        54  PMPG      H12R          -26.7633932761       10.2411061740        5.5573238389  MEMB      54              0.0000000000
      6545        54  PMPG      H12S          -26.5930383751       11.3250887950        6.9613939266  MEMB      54              0.0000000000
      6546        54  PMPG      C213          -27.9638276422       12.0302337459        5.3948564236  MEMB      54              0.0000000000
      6547        54  PMPG      H13R          -27.4940969207       12.9203465839        5.7917836162  MEMB      54              0.0000000000
      6548        54  PMPG      H13S          -29.0172394275       12.2710058719        5.6122642359  MEMB      54              0.0000000000
      6549        54  PMPG      C214          -27.7784463702       11.8429705668        3.8817955624  MEMB      54              0.0000000000
      6550        54  PMPG      H14R          -28.4620460059       11.0465481885        3.5357038852  MEMB      54              0.0000000000
      6551        54  PMPG      H14S          -26.7223977799       11.5214482404        3.7001885300  MEMB      54              0.0000000000
      6552        54  PMPG      C215          -28.1975074624       13.0694460644        3.0550544926  MEMB      54              0.0000000000
      6553        54  PMPG      H15R          -27.5938303638       13.8693395497        3.4307800728  MEMB      54              0.0000000000
      6554        54  PMPG      H15S          -29.1801703534       13.4618428814        3.3373260259  MEMB      54              0.0000000000
      6555        54  PMPG      C216          -27.9853935163       12.9733462679        1.5352012404  MEMB      54              0.0000000000
      6556        54  PMPG      H16R          -26.9504643739       12.6748453448        1.3921627639  MEMB      54              0.0000000000
      6557        54  PMPG      H16S          -28.0038711878       13.9391659058        0.9848287153  MEMB      54              0.0000000000
      6558        54  PMPG      H16T          -28.6290651140       12.2298429335        1.0461810258  MEMB      54              0.0000000000
      6559        54  PMPG      C33           -35.3925060430        8.3983987395       10.5278262933  MEMB      54              0.0000000000
      6560        54  PMPG      H3X           -36.5021630883        8.5024096473       10.3703901886  MEMB      54              0.0000000000
      6561        54  PMPG      H3Y           -35.1066965242        7.6629291726       11.3040013103  MEMB      54              0.0000000000
      6562        54  PMPG      C34           -34.5914512295        8.3916553816        9.2290864705  MEMB      54              0.0000000000
      6563        54  PMPG      H4X           -34.9639314508        7.4421228566        8.8677830132  MEMB      54              0.0000000000
      6564        54  PMPG      H4Y           -33.4930697934        8.3206905051        9.4427444490  MEMB      54              0.0000000000
      6565        54  PMPG      C35           -34.8243187013        9.5360845051        8.1847780619  MEMB      54              0.0000000000
      6566        54  PMPG      H5X           -33.9741896689       10.2581102419        8.1865125603  MEMB      54              0.0000000000
      6567        54  PMPG      H5Y           -35.8317279703        9.9850303191        8.2871738934  MEMB      54              0.0000000000
      6568        54  PMPG      C36           -34.7203789133        9.1953461239        6.7306287806  MEMB      54              0.0000000000
      6569        54  PMPG      H6X           -34.8013305217        9.9221305015        5.9352480656  MEMB      54              0.0000000000
      6570        54  PMPG      H6Y           -35.6302039961        8.5533925239        6.6285447604  MEMB      54              0.0000000000
      6571        54  PMPG      C37           -33.2903702167        8.7625504352        6.4816847782  MEMB      54              0.0000000000
      6572        54  PMPG      H7X           -33.5022129072        7.9622916793        7.1865024645  MEMB      54              0.0000000000
      6573        54  PMPG      H7Y           -32.4089053243        9.1576565241        6.9937758566  MEMB      54              0.0000000000
      6574        54  PMPG      C38           -32.8874354817        8.5227030507        5.0184730395  MEMB      54              0.0000000000
      6575        54  PMPG      H8X           -33.4186061684        9.1607375628        4.3121144352  MEMB      54              0.0000000000
      6576        54  PMPG      H8Y           -33.2277109048        7.6080044443        4.6206632763  MEMB      54              0.0000000000
      6577        54  PMPG      C39           -31.4435513838        8.1492061427        4.6938494696  MEMB      54              0.0000000000
      6578        54  PMPG      H9X           -30.9419072025        7.4279726660        5.3708410406  MEMB      54              0.0000000000
      6579        54  PMPG      H9Y           -30.9004900094        9.0941933527        4.6002028589  MEMB      54              0.0000000000
      6580        54  PMPG      C310          -31.4351877468        7.4335160038        3.3849386112  MEMB      54              0.0000000000
      6581        54  PMPG      H10X          -32.0594647416        6.5641347728        3.3088424445  MEMB      54              0.0000000000
      6582        54  PMPG      H10Y          -30.5032932349        6.9897985882        3.0772398946  MEMB      54              0.0000000000
      6583        54  PMPG      C311          -32.0710577005        8.2501825858        2.4015046405  MEMB      54              0.0000000000
      6584        54  PMPG      H11X          -31.9757012155        9.3401140779        2.6649873342  MEMB      54              0.0000000000
      6585        54  PMPG      H11Y          -33.1374662572        7.9138818910        2.2196854743  MEMB      54              0.0000000000
      6586        54  PMPG      C312          -31.3092368664        8.1458015491        1.2266219006  MEMB      54              0.0000000000
      6587        54  PMPG      H12X          -31.2905276339        7.1315228791        0.6299231822  MEMB      54              0.0000000000
      6588        54  PMPG      H12Y          -30.3206190503        8.6616556387        1.2574371923  MEMB      54              0.0000000000
      6589        54  PMPG      C313          -32.3085279424        9.0505132529        0.6360128464  MEMB      54              0.0000000000
      6590        54  PMPG      H13X          -33.2479952437        8.5607222208        0.4359749764  MEMB      54              0.0000000000
      6591        54  PMPG      H13Y          -31.5489024618        8.5748262139       -0.0272933658  MEMB      54              0.0000000000
      6592        54  PMPG      C314          -32.5807445782       10.6951866085        0.5859583852  MEMB      54              0.0000000000
      6593        54  PMPG      H14X          -31.7094734770       11.2884363965        0.9325844972  MEMB      54              0.0000000000
      6594        54  PMPG      H14Y          -33.3489885231       10.6658941456        1.3459412869  MEMB      54              0.0000000000
      6595        54  PMPG      C315          -33.2498592807       11.6755474041       -0.5964868699  MEMB      54              0.0000000000
      6596        54  PMPG      H15X          -33.2572952544       12.7341870042       -0.2874928761  MEMB      54              0.0000000000
      6597        54  PMPG      H15Y          -34.1799760687       11.2460119128       -0.9921924878  MEMB      54              0.0000000000
      6598        54  PMPG      C316          -32.7752729119       12.1055468991       -1.9906755536  MEMB      54              0.0000000000
      6599        54  PMPG      H16X          -32.7330188417       11.1378248310       -2.3134121559  MEMB      54              0.0000000000
      6600        54  PMPG      H16Y          -31.8052727335       12.4892825295       -2.0869872367  MEMB      54              0.0000000000
      6601        54  PMPG      H16Z          -33.2422629825       12.4270522987       -2.9196743028  MEMB      54              0.0000000000
      6602        55  PMPG      C13           -26.8892796969      -16.5704751822       20.9916926713  MEMB      55              0.0000000000
      6603        55  PMPG      H13A          -26.6770762830      -17.5164556191       20.4380717755  MEMB      55              0.0000000000
      6604        55  PMPG      H13B          -25.9331743541      -16.1140095155       21.3239412692  MEMB      55              0.0000000000
      6605        55  PMPG      OC3           -27.6502408486      -16.8673730689       22.1693195781  MEMB      55              0.0000000000
      6606        55  PMPG      HO3           -27.9065780126      -17.7903683078       22.1421655396  MEMB      55              0.0000000000
      6607        55  PMPG      C12           -27.5557530583      -15.5299375125       20.0303871177  MEMB      55              0.0000000000
      6608        55  PMPG      H12A          -26.7522347547      -15.1399219126       19.3599241336  MEMB      55              0.0000000000
      6609        55  PMPG      OC2           -28.0995201496      -14.4158482156       20.7329638403  MEMB      55              0.0000000000
      6610        55  PMPG      HO2           -28.5768302275      -13.9549135431       20.0437671618  MEMB      55              0.0000000000
      6611        55  PMPG      C11           -28.6264995383      -16.1701339541       19.1084344079  MEMB      55              0.0000000000
      6612        55  PMPG      H11A          -29.2805136927      -16.8259487444       19.7285190970  MEMB      55              0.0000000000
      6613        55  PMPG      H11B          -28.0403269285      -16.8076820018       18.4011055062  MEMB      55              0.0000000000
      6614        55  PMPG      P             -30.5068898873      -15.8181409524       17.3867870145  MEMB      55              0.0000000000
      6615        55  PMPG      O13           -31.3974916850      -14.7213735467       16.9497892361  MEMB      55              0.0000000000
      6616        55  PMPG      O14           -31.1218941906      -17.0319679651       17.9544899528  MEMB      55              0.0000000000
      6617        55  PMPG      O11           -29.5763406551      -16.2559854169       16.1957187362  MEMB      55              0.0000000000
      6618        55  PMPG      O12           -29.4256201002      -15.2057053013       18.3980811550  MEMB      55              0.0000000000
      6619        55  PMPG      C1            -29.7509188970      -15.6522924509       14.9188587341  MEMB      55              0.0000000000
      6620        55  PMPG      HA            -28.7967479682      -15.7777793792       14.3641645082  MEMB      55              0.0000000000
      6621        55  PMPG      HB            -29.9576589401      -14.5609971498       14.9796601357  MEMB      55              0.0000000000
      6622        55  PMPG      C2            -30.8619440913      -16.3432625107       14.1024036580  MEMB      55              0.0000000000
      6623        55  PMPG      HS            -31.6518710133      -16.7221031240       14.7984913591  MEMB      55              0.0000000000
      6624        55  PMPG      O21           -30.1934182296      -17.4238111958       13.4418406570  MEMB      55              0.0000000000
      6625        55  PMPG      C21           -30.9887989741      -18.2180460279       12.8120846262  MEMB      55              0.0000000000
      6626        55  PMPG      O22           -32.1996441578      -18.2327933846       12.8215443231  MEMB      55              0.0000000000
      6627        55  PMPG      C22           -30.1589531855      -19.2011624819       12.0394092733  MEMB      55              0.0000000000
      6628        55  PMPG      H2R           -30.5496220524      -20.0641272696       12.5286719750  MEMB      55              0.0000000000
      6629        55  PMPG      H2S           -29.1027846262      -19.2453671556       12.3416225603  MEMB      55              0.0000000000
      6630        55  PMPG      C3            -31.5480214447      -15.3822165986       13.0786532176  MEMB      55              0.0000000000
      6631        55  PMPG      HX            -32.1664964420      -14.6451561983       13.6250628315  MEMB      55              0.0000000000
      6632        55  PMPG      HY            -32.2685901448      -15.9750668095       12.4674299731  MEMB      55              0.0000000000
      6633        55  PMPG      O31           -30.5739851506      -14.7006364136       12.2560707970  MEMB      55              0.0000000000
      6634        55  PMPG      C31           -31.0788189805      -14.3903255830       11.0787399747  MEMB      55              0.0000000000
      6635        55  PMPG      O32           -32.2470504546      -14.4927305470       10.7453870079  MEMB      55              0.0000000000
      6636        55  PMPG      C32           -30.0319522068      -13.8046497188       10.2025276535  MEMB      55              0.0000000000
      6637        55  PMPG      H2X           -30.1619752681      -14.2583116231        9.1936699335  MEMB      55              0.0000000000
      6638        55  PMPG      H2Y           -29.0167080860      -13.9115548465       10.6198968054  MEMB      55              0.0000000000
      6639        55  PMPG      C23           -30.3411107615      -19.0984841524       10.5095928123  MEMB      55              0.0000000000
      6640        55  PMPG      H3R           -31.4019951716      -19.1752865869       10.1741895070  MEMB      55              0.0000000000
      6641        55  PMPG      H3S           -29.7917109080      -19.9438179974       10.0408576125  MEMB      55              0.0000000000
      6642        55  PMPG      C24           -29.7161151919      -17.7768661340       10.0446366741  MEMB      55              0.0000000000
      6643        55  PMPG      H4R           -28.6282057408      -17.8502832270       10.2353449806  MEMB      55              0.0000000000
      6644        55  PMPG      H4S           -30.1117890938      -16.9644470712       10.6954447583  MEMB      55              0.0000000000
      6645        55  PMPG      C25           -29.9377743680      -17.3861747886        8.5775052431  MEMB      55              0.0000000000
      6646        55  PMPG      H5R           -29.4386183484      -16.4109016131        8.3746965520  MEMB      55              0.0000000000
      6647        55  PMPG      H5S           -31.0304129408      -17.2154929576        8.4334426857  MEMB      55              0.0000000000
      6648        55  PMPG      C26           -29.5190668532      -18.4613347009        7.5553672309  MEMB      55              0.0000000000
      6649        55  PMPG      H6R           -29.7978963284      -18.1199970342        6.5358852036  MEMB      55              0.0000000000
      6650        55  PMPG      H6S           -30.1065389284      -19.3699371372        7.7865092824  MEMB      55              0.0000000000
      6651        55  PMPG      C27           -28.0759814700      -18.9786500230        7.5464358119  MEMB      55              0.0000000000
      6652        55  PMPG      H7R           -27.9799273444      -19.8378060180        6.8556100234  MEMB      55              0.0000000000
      6653        55  PMPG      H7S           -27.8017813417      -19.3371419193        8.5653849504  MEMB      55              0.0000000000
      6654        55  PMPG      C28           -27.0767134812      -17.9834518210        7.0209837107  MEMB      55              0.0000000000
      6655        55  PMPG      H8R           -26.0851474941      -18.4246912762        6.7533316151  MEMB      55              0.0000000000
      6656        55  PMPG      H8S           -26.9888607699      -17.3621826196        7.8707070515  MEMB      55              0.0000000000
      6657        55  PMPG      C29           -27.5628458046      -16.9186537391        6.0991280811  MEMB      55              0.0000000000
      6658        55  PMPG      H9R           -27.8816726370      -15.9228579940        6.4618214801  MEMB      55              0.0000000000
      6659        55  PMPG      C217          -26.5606832429      -16.7641336965        5.0337127316  MEMB      55              0.0000000000
      6660        55  PMPG      H17R          -26.4396358146      -15.7197439579        4.8791818700  MEMB      55              0.0000000000
      6661        55  PMPG      H17S          -25.8315082480      -17.5252193968        4.7608817431  MEMB      55              0.0000000000
      6662        55  PMPG      C210          -27.9412155470      -17.2374787482        4.7405879140  MEMB      55              0.0000000000
      6663        55  PMPG      H10R          -28.5330770828      -16.5241290395        4.1413394477  MEMB      55              0.0000000000
      6664        55  PMPG      C211          -27.8246024956      -18.6381224805        4.3558225635  MEMB      55              0.0000000000
      6665        55  PMPG      H11R          -27.1264108571      -19.3162650165        4.8812007609  MEMB      55              0.0000000000
      6666        55  PMPG      H11S          -28.8630965335      -19.0161695744        4.5229946200  MEMB      55              0.0000000000
      6667        55  PMPG      C212          -27.2109344771      -18.5496003671        2.9688136767  MEMB      55              0.0000000000
      6668        55  PMPG      H12R          -26.1538490580      -18.3825404288        2.8359221303  MEMB      55              0.0000000000
      6669        55  PMPG      H12S          -27.6614905185      -17.6839742221        2.4616406463  MEMB      55              0.0000000000
      6670        55  PMPG      C213          -27.2174303607      -19.8247044910        2.2900942889  MEMB      55              0.0000000000
      6671        55  PMPG      H13R          -27.0933504358      -20.8018356296        2.8587417284  MEMB      55              0.0000000000
      6672        55  PMPG      H13S          -26.8035238269      -19.8104764501        1.2744797186  MEMB      55              0.0000000000
      6673        55  PMPG      C214          -28.5760677386      -19.8279622329        2.1516630453  MEMB      55              0.0000000000
      6674        55  PMPG      H14R          -28.8511918515      -20.1933910441        3.1527555442  MEMB      55              0.0000000000
      6675        55  PMPG      H14S          -28.7367614505      -20.7542028127        1.6300179679  MEMB      55              0.0000000000
      6676        55  PMPG      C215          -29.3442990378      -18.6444092137        1.5771237775  MEMB      55              0.0000000000
      6677        55  PMPG      H15R          -29.5117895055      -17.6524953953        1.9020291817  MEMB      55              0.0000000000
      6678        55  PMPG      H15S          -30.2825541005      -18.6578379629        2.0937809992  MEMB      55              0.0000000000
      6679        55  PMPG      C216          -29.2427566403      -18.4805767956        0.1590938272  MEMB      55              0.0000000000
      6680        55  PMPG      H16R          -28.2812588115      -18.6599137292       -0.3585382069  MEMB      55              0.0000000000
      6681        55  PMPG      H16S          -30.1483182407      -18.1118569065       -0.2936012372  MEMB      55              0.0000000000
      6682        55  PMPG      H16T          -29.7485532290      -19.0544706921       -0.5553194237  MEMB      55              0.0000000000
      6683        55  PMPG      C33           -30.1927678240      -12.3332955054       10.0137568393  MEMB      55              0.0000000000
      6684        55  PMPG      H3X           -30.2677946332      -11.6862830045       10.9131245884  MEMB      55              0.0000000000
      6685        55  PMPG      H3Y           -31.1786460046      -12.1709304824        9.5142571803  MEMB      55              0.0000000000
      6686        55  PMPG      C34           -28.9635863359      -11.8743678468        9.2507936418  MEMB      55              0.0000000000
      6687        55  PMPG      H4X           -28.0649051003      -11.5828969296        9.7933223649  MEMB      55              0.0000000000
      6688        55  PMPG      H4Y           -28.9460899323      -10.8198295174        9.2127487104  MEMB      55              0.0000000000
      6689        55  PMPG      C35           -28.8777927307      -12.5061606774        7.8694890964  MEMB      55              0.0000000000
      6690        55  PMPG      H5X           -29.8206377607      -12.9342469956        7.4916667537  MEMB      55              0.0000000000
      6691        55  PMPG      H5Y           -28.2409648747      -13.4008844481        7.9889816073  MEMB      55              0.0000000000
      6692        55  PMPG      C36           -28.2654733570      -11.6378433079        6.7957781081  MEMB      55              0.0000000000
      6693        55  PMPG      H6X           -27.3191569192      -11.5576929676        7.3257791822  MEMB      55              0.0000000000
      6694        55  PMPG      H6Y           -28.5025941878      -10.5683549802        6.6026001916  MEMB      55              0.0000000000
      6695        55  PMPG      C37           -28.2542654991      -12.4077403267        5.4874634461  MEMB      55              0.0000000000
      6696        55  PMPG      H7X           -28.2320308759      -13.5106912018        5.5702597789  MEMB      55              0.0000000000
      6697        55  PMPG      H7Y           -27.5547788714      -12.2026010656        4.6832857035  MEMB      55              0.0000000000
      6698        55  PMPG      C38           -29.2447411238      -11.8929005772        4.6341909809  MEMB      55              0.0000000000
      6699        55  PMPG      H8X           -29.6068698763      -10.8382134594        4.7364935781  MEMB      55              0.0000000000
      6700        55  PMPG      H8Y           -29.9408470255      -12.5645327670        5.1900421432  MEMB      55              0.0000000000
      6701        55  PMPG      C39           -29.0464874501      -12.3188132381        3.2010130951  MEMB      55              0.0000000000
      6702        55  PMPG      H9X           -28.4987817880      -11.6359449542        2.5169783732  MEMB      55              0.0000000000
      6703        55  PMPG      H9Y           -29.9720696331      -12.3053840054        2.7943906007  MEMB      55              0.0000000000
      6704        55  PMPG      C310          -29.4608755938      -13.7287133736        2.7486587366  MEMB      55              0.0000000000
      6705        55  PMPG      H10X          -29.4456961641      -14.5204002255        3.5048666601  MEMB      55              0.0000000000
      6706        55  PMPG      H10Y          -28.5762940315      -13.6512038253        2.3433907422  MEMB      55              0.0000000000
      6707        55  PMPG      C311          -29.7410547657      -13.9934497794        1.2840172025  MEMB      55              0.0000000000
      6708        55  PMPG      H11X          -29.4515629687      -13.1353629732        0.6193516537  MEMB      55              0.0000000000
      6709        55  PMPG      H11Y          -30.8228835134      -14.2056653720        1.1713880857  MEMB      55              0.0000000000
      6710        55  PMPG      C312          -28.9523156159      -15.1721285108        0.7401415578  MEMB      55              0.0000000000
      6711        55  PMPG      H12X          -29.6038348060      -15.0822271264       -0.0816475457  MEMB      55              0.0000000000
      6712        55  PMPG      H12Y          -29.0468910647      -16.0576136349        1.3545513313  MEMB      55              0.0000000000
      6713        55  PMPG      C313          -27.6275328050      -15.0574575528       -0.0738464668  MEMB      55              0.0000000000
      6714        55  PMPG      H13X          -27.4394458735      -14.7523084168        0.8580496278  MEMB      55              0.0000000000
      6715        55  PMPG      H13Y          -27.3171140112      -14.1164918455       -0.5121441759  MEMB      55              0.0000000000
      6716        55  PMPG      C314          -26.7865459196      -16.3547065817       -0.5220577755  MEMB      55              0.0000000000
      6717        55  PMPG      H14X          -26.9244330281      -16.1684143230       -1.5982336381  MEMB      55              0.0000000000
      6718        55  PMPG      H14Y          -27.3022026583      -17.1545357315        0.0240851777  MEMB      55              0.0000000000
      6719        55  PMPG      C315          -25.2687153137      -16.7835766285       -0.5815645242  MEMB      55              0.0000000000
      6720        55  PMPG      H15X          -24.8679596155      -17.3072540445        0.3377195358  MEMB      55              0.0000000000
      6721        55  PMPG      H15Y          -24.6693596342      -15.8696261980       -0.7565340007  MEMB      55              0.0000000000
      6722        55  PMPG      C316          -24.8088116873      -17.7771958382       -1.5331830015  MEMB      55              0.0000000000
      6723        55  PMPG      H16X          -25.4001614222      -18.7061453724       -1.4249877794  MEMB      55              0.0000000000
      6724        55  PMPG      H16Y          -23.7264220106      -17.8741420427       -1.2549771807  MEMB      55              0.0000000000
      6725        55  PMPG      H16Z          -24.9390860738      -17.2517177145       -2.4683447696  MEMB      55              0.0000000000
      6726        56  QMPE      N               2.6011037574       30.8916214938       18.9794017000  MEMB      56              0.0000000000
      6727        56  QMPE      HN1             1.7050782272       30.3796897247       19.1029705152  MEMB      56              0.0000000000
      6728        56  QMPE      HN2             3.2528977119       30.2972148005       18.4321550169  MEMB      56              0.0000000000
      6729        56  QMPE      HN3             3.0530465338       31.0696350980       19.8985838375  MEMB      56              0.0000000000
      6730        56  QMPE      C12             2.3661616721       32.2109212385       18.3008462957  MEMB      56              0.0000000000
      6731        56  QMPE      H12A            1.2975032534       32.2030141344       17.9904327743  MEMB      56              0.0000000000
      6732        56  QMPE      H12B            3.0278261471       32.2189061606       17.4106377731  MEMB      56              0.0000000000
      6733        56  QMPE      C11             2.6435679020       33.4662568253       19.1798090303  MEMB      56              0.0000000000
      6734        56  QMPE      H11A            1.9178609726       33.5497133488       20.0143660470  MEMB      56              0.0000000000
      6735        56  QMPE      H11B            2.4015856637       34.3532643678       18.5475687348  MEMB      56              0.0000000000
      6736        56  QMPE      P               5.0437442318       34.6012784937       19.2395581823  MEMB      56              0.0000000000
      6737        56  QMPE      O13             6.4197721349       34.1097745858       19.4820719716  MEMB      56              0.0000000000
      6738        56  QMPE      O14             4.7167096676       35.9431376453       19.7510592605  MEMB      56              0.0000000000
      6739        56  QMPE      O11             4.6899158387       34.5269260378       17.6986996132  MEMB      56              0.0000000000
      6740        56  QMPE      O12             3.9738492312       33.5201239196       19.7248622111  MEMB      56              0.0000000000
      6741        56  QMPE      C1              5.3398504281       35.4113919415       16.8212733373  MEMB      56              0.0000000000
      6742        56  QMPE      HA              6.2123316267       34.8469332614       16.4766320080  MEMB      56              0.0000000000
      6743        56  QMPE      HB              5.5678039700       36.4111247421       17.2824261563  MEMB      56              0.0000000000
      6744        56  QMPE      C2              4.6878243749       35.6450254957       15.4652994545  MEMB      56              0.0000000000
      6745        56  QMPE      HS              4.0182172840       36.5298673982       15.6604127486  MEMB      56              0.0000000000
      6746        56  QMPE      O21             3.9847158637       34.5662450702       14.9444865368  MEMB      56              0.0000000000
      6747        56  QMPE      C21             2.9146393316       34.3658314621       15.5439187787  MEMB      56              0.0000000000
      6748        56  QMPE      O22             2.3641317396       35.0841899516       16.3750328627  MEMB      56              0.0000000000
      6749        56  QMPE      C22             2.4417383434       33.0266007226       14.9031659829  MEMB      56              0.0000000000
      6750        56  QMPE      H2R             1.5355465449       32.7141640937       15.4482701325  MEMB      56              0.0000000000
      6751        56  QMPE      H2S             3.2456735099       32.2874703076       14.9537503175  MEMB      56              0.0000000000
      6752        56  QMPE      C3              5.6497759388       35.9214853156       14.3252115009  MEMB      56              0.0000000000
      6753        56  QMPE      HX              6.4468350569       35.3526411701       14.1390327877  MEMB      56              0.0000000000
      6754        56  QMPE      HY              6.2072224423       36.8364953910       14.4946647160  MEMB      56              0.0000000000
      6755        56  QMPE      O31             4.9541829775       35.9306811677       13.0915075604  MEMB      56              0.0000000000
      6756        56  QMPE      C31             5.2966846032       35.2217315021       12.1003242130  MEMB      56              0.0000000000
      6757        56  QMPE      O32             6.2060131936       34.4115634189       12.0468365861  MEMB      56              0.0000000000
      6758        56  QMPE      C32             4.4308008532       35.6467886075       10.9441320783  MEMB      56              0.0000000000
      6759        56  QMPE      H2X             3.5582197534       35.0190110002       10.9994987985  MEMB      56              0.0000000000
      6760        56  QMPE      H2Y             4.0376352776       36.6610586766       11.0003322325  MEMB      56              0.0000000000
      6761        56  QMPE      C23             2.1930729233       33.1144601979       13.3749901039  MEMB      56              0.0000000000
      6762        56  QMPE      H3R             1.8265917262       32.1713058213       12.8921363314  MEMB      56              0.0000000000
      6763        56  QMPE      H3S             3.0310506041       33.4718889143       12.7467858339  MEMB      56              0.0000000000
      6764        56  QMPE      C24             1.3436959759       34.3589788022       13.3279626916  MEMB      56              0.0000000000
      6765        56  QMPE      H4R             1.7746383004       35.3015998589       13.6877482510  MEMB      56              0.0000000000
      6766        56  QMPE      H4S             0.7668568562       34.1817329068       14.2633971376  MEMB      56              0.0000000000
      6767        56  QMPE      C25             0.9063942735       35.2166121109       12.0586712232  MEMB      56              0.0000000000
      6768        56  QMPE      H5R             0.6050994305       36.2409601530       12.3154915012  MEMB      56              0.0000000000
      6769        56  QMPE      H5S             1.6900200296       34.4730089987       12.0818929565  MEMB      56              0.0000000000
      6770        56  QMPE      C26             1.4293276125       35.3274487105       10.7265145208  MEMB      56              0.0000000000
      6771        56  QMPE      H6R             1.8354007264       34.3618137535       10.3890562417  MEMB      56              0.0000000000
      6772        56  QMPE      H6S             2.0593792778       35.6307374606        9.9394923327  MEMB      56              0.0000000000
      6773        56  QMPE      C27             0.2773159322       34.8648420151       10.0286288949  MEMB      56              0.0000000000
      6774        56  QMPE      H7R             0.1595358527       35.9967829946       10.2807562341  MEMB      56              0.0000000000
      6775        56  QMPE      H7S            -0.3778424641       35.2177432734        9.8552725476  MEMB      56              0.0000000000
      6776        56  QMPE      C28            -0.1812226779       33.1163411499        9.3850665526  MEMB      56              0.0000000000
      6777        56  QMPE      H8R            -0.8902818880       33.2941644558       10.3684007502  MEMB      56              0.0000000000
      6778        56  QMPE      H8S             0.4136829589       32.7969830684       10.0507225190  MEMB      56              0.0000000000
      6779        56  QMPE      C29            -1.8449291563       32.8029351034        6.9722332956  MEMB      56              0.0000000000
      6780        56  QMPE      H9R            -2.4904620288       33.4404358397        6.9120598567  MEMB      56              0.0000000000
      6781        56  QMPE      C217           -1.1947230324       31.8812971224        5.9827002300  MEMB      56              0.0000000000
      6782        56  QMPE      H17R           -0.6971108455       31.4242075656        6.5919652661  MEMB      56              0.0000000000
      6783        56  QMPE      H17S           -2.2429385527       31.8222521379        6.7179020530  MEMB      56              0.0000000000
      6784        56  QMPE      C210           -1.1013528708       33.3190840313        5.3662838821  MEMB      56              0.0000000000
      6785        56  QMPE      H10R           -1.7050622134       33.9430602245        4.7839013504  MEMB      56              0.0000000000
      6786        56  QMPE      C211            0.2686112608       33.8495861157        5.0183544067  MEMB      56              0.0000000000
      6787        56  QMPE      H11R            1.1888934683       33.8791161549        5.5780430110  MEMB      56              0.0000000000
      6788        56  QMPE      H11S            0.6702334654       33.0009746549        4.5854991196  MEMB      56              0.0000000000
      6789        56  QMPE      C212            0.6315052339       35.3898215704        5.2669086402  MEMB      56              0.0000000000
      6790        56  QMPE      H12R            1.4328848360       35.4058175741        4.6753251366  MEMB      56              0.0000000000
      6791        56  QMPE      H12S            1.1569956773       35.8399097879        6.2166176801  MEMB      56              0.0000000000
      6792        56  QMPE      C213           -0.1880340533       36.1657052754        4.4918606299  MEMB      56              0.0000000000
      6793        56  QMPE      H13R           -0.9118002711       36.4388380738        5.2434879592  MEMB      56              0.0000000000
      6794        56  QMPE      H13S           -0.7033710281       35.4789853926        3.7809816236  MEMB      56              0.0000000000
      6795        56  QMPE      C214            0.5487860877       37.3929154383        3.9995195503  MEMB      56              0.0000000000
      6796        56  QMPE      H14R            1.3536690528       37.6974107526        4.7015787960  MEMB      56              0.0000000000
      6797        56  QMPE      H14S           -0.3438452220       38.0586121940        4.0524675375  MEMB      56              0.0000000000
      6798        56  QMPE      C215            1.1509748203       37.2142668899        2.6245293989  MEMB      56              0.0000000000
      6799        56  QMPE      H15R            1.7329958189       36.2840255265        2.5384251002  MEMB      56              0.0000000000
      6800        56  QMPE      H15S            1.6589861337       38.0533027750        2.1387175241  MEMB      56              0.0000000000
      6801        56  QMPE      C216            0.0640953192       36.8973714513        1.7767749001  MEMB      56              0.0000000000
      6802        56  QMPE      H16R            0.2319081267       36.8439862298        0.6872225099  MEMB      56              0.0000000000
      6803        56  QMPE      H16S           -0.8267401869       37.5395930635        1.9816607341  MEMB      56              0.0000000000
      6804        56  QMPE      H16T           -0.2168053955       35.8454291543        2.0369550788  MEMB      56              0.0000000000
      6805        56  QMPE      C33             5.2238725959       35.5551928958        9.6673799724  MEMB      56              0.0000000000
      6806        56  QMPE      H3X             6.2784217179       35.2776270207        9.8479771889  MEMB      56              0.0000000000
      6807        56  QMPE      H3Y             5.2228300153       36.5534419573        9.1789161540  MEMB      56              0.0000000000
      6808        56  QMPE      C34             4.6832672142       34.4972334037        8.7583591525  MEMB      56              0.0000000000
      6809        56  QMPE      H4X             3.6799157682       34.9377712167        8.4615406898  MEMB      56              0.0000000000
      6810        56  QMPE      H4Y             4.5918174032       33.4880374796        9.1756623205  MEMB      56              0.0000000000
      6811        56  QMPE      C35             5.6323271937       34.3419646967        7.5813244102  MEMB      56              0.0000000000
      6812        56  QMPE      H5X             6.6992956241       34.2978855053        7.8012451125  MEMB      56              0.0000000000
      6813        56  QMPE      H5Y             5.1103365500       35.2692443386        7.2521398169  MEMB      56              0.0000000000
      6814        56  QMPE      C36             5.6653302869       33.2149491723        6.5714859438  MEMB      56              0.0000000000
      6815        56  QMPE      H6X             4.7395101848       33.6832661453        6.4867094984  MEMB      56              0.0000000000
      6816        56  QMPE      H6Y             5.6601617152       32.2528906978        7.0742417321  MEMB      56              0.0000000000
      6817        56  QMPE      C37             5.9971697235       33.0626794573        5.0869474712  MEMB      56              0.0000000000
      6818        56  QMPE      H7X             5.5356133738       33.6451423574        4.3069488018  MEMB      56              0.0000000000
      6819        56  QMPE      H7Y             7.0235974398       33.3469145540        5.0005637327  MEMB      56              0.0000000000
      6820        56  QMPE      C38             5.6341368444       31.6765586628        4.5780673911  MEMB      56              0.0000000000
      6821        56  QMPE      H8X             6.0958711629       30.9632294986        5.2845189775  MEMB      56              0.0000000000
      6822        56  QMPE      H8Y             4.6379633087       31.3430422848        4.4378679391  MEMB      56              0.0000000000
      6823        56  QMPE      C39             6.0244638612       31.4282755342        3.1568725327  MEMB      56              0.0000000000
      6824        56  QMPE      H9X             5.8575364860       30.4205434077        2.7416094889  MEMB      56              0.0000000000
      6825        56  QMPE      H9Y             6.9488580410       31.4544745335        3.6037176850  MEMB      56              0.0000000000
      6826        56  QMPE      C310            6.1724084114       32.4570585542        2.0553101527  MEMB      56              0.0000000000
      6827        56  QMPE      H10X            6.9556723373       32.2747581213        1.2877202211  MEMB      56              0.0000000000
      6828        56  QMPE      H10Y            6.1629767094       33.5449083911        2.3355465478  MEMB      56              0.0000000000
      6829        56  QMPE      C311            5.2320211094       32.0365664300        0.9911862036  MEMB      56              0.0000000000
      6830        56  QMPE      H11X            5.2647237255       32.9073600220        0.3202906650  MEMB      56              0.0000000000
      6831        56  QMPE      H11Y            4.6129328776       32.1666760303        1.8104301967  MEMB      56              0.0000000000
      6832        56  QMPE      C312            4.0783605721       30.9875066095        0.9728386275  MEMB      56              0.0000000000
      6833        56  QMPE      H12X            3.7631518365       30.5120424804        1.9416902887  MEMB      56              0.0000000000
      6834        56  QMPE      H12Y            4.7213905836       30.4151867452        0.3685816079  MEMB      56              0.0000000000
      6835        56  QMPE      C313            2.8354629966       31.4238446522        0.2046152222  MEMB      56              0.0000000000
      6836        56  QMPE      H13X            2.1405151223       32.0050584480        0.8352929800  MEMB      56              0.0000000000
      6837        56  QMPE      H13Y            3.1935452243       31.9858739717       -0.6057671332  MEMB      56              0.0000000000
      6838        56  QMPE      C314            2.0163589199       30.5677281489       -0.6548775158  MEMB      56              0.0000000000
      6839        56  QMPE      H14X            1.2165467620       30.8309428352       -0.0596112942  MEMB      56              0.0000000000
      6840        56  QMPE      H14Y            2.4665227473       29.5642327856       -0.4220980983  MEMB      56              0.0000000000
      6841        56  QMPE      C315            0.6241732027       30.7966845536       -1.4149736215  MEMB      56              0.0000000000
      6842        56  QMPE      H15X            0.7786027796       30.6317627230       -2.4842496780  MEMB      56              0.0000000000
      6843        56  QMPE      H15Y           -0.1239574459       30.9326346255       -2.1732539939  MEMB      56              0.0000000000
      6844        56  QMPE      H15Z            1.4575018368       30.5429174338       -2.0315473361  MEMB      56              0.0000000000
      6845        57  PMPE      N             -27.5839008275       21.4405543694       19.3498414254  MEMB      57              0.0000000000
      6846        57  PMPE      HN1           -27.8770531368       20.5612116003       19.8294025833  MEMB      57              0.0000000000
      6847        57  PMPE      HN2           -27.3947062477       22.2003960715       20.0372776072  MEMB      57              0.0000000000
      6848        57  PMPE      HN3           -28.3715800205       21.7077199402       18.7253678457  MEMB      57              0.0000000000
      6849        57  PMPE      C12           -26.3503980585       21.1237205717       18.5484580988  MEMB      57              0.0000000000
      6850        57  PMPE      H12A          -26.6879376706       20.5545874138       17.6569446674  MEMB      57              0.0000000000
      6851        57  PMPE      H12B          -25.7142391773       20.4655526897       19.1790969496  MEMB      57              0.0000000000
      6852        57  PMPE      C11           -25.6033092906       22.3838057177       18.0725059508  MEMB      57              0.0000000000
      6853        57  PMPE      H11A          -26.3187010784       23.0714334348       17.5626693810  MEMB      57              0.0000000000
      6854        57  PMPE      H11B          -24.8600890759       22.0297009357       17.3122330002  MEMB      57              0.0000000000
      6855        57  PMPE      P             -23.3990918617       23.2365230994       19.2742541821  MEMB      57              0.0000000000
      6856        57  PMPE      O13           -22.7986014072       21.9054390104       19.4349811934  MEMB      57              0.0000000000
      6857        57  PMPE      O14           -23.1165762142       24.2365403023       20.3346500202  MEMB      57              0.0000000000
      6858        57  PMPE      O11           -23.0089221422       23.8479115326       17.8624088193  MEMB      57              0.0000000000
      6859        57  PMPE      O12           -24.9877306780       23.0765939687       19.1596176339  MEMB      57              0.0000000000
      6860        57  PMPE      C1            -23.2275051284       25.2354338597       17.5723006054  MEMB      57              0.0000000000
      6861        57  PMPE      HA            -22.5389320856       25.8603841492       18.1875673439  MEMB      57              0.0000000000
      6862        57  PMPE      HB            -24.2679519158       25.5583714423       17.7819935049  MEMB      57              0.0000000000
      6863        57  PMPE      C2            -22.9087888883       25.6178162620       16.0930009813  MEMB      57              0.0000000000
      6864        57  PMPE      HS            -23.0435723985       26.7173336102       15.9710634863  MEMB      57              0.0000000000
      6865        57  PMPE      O21           -23.6339244090       24.8821538738       15.0851746065  MEMB      57              0.0000000000
      6866        57  PMPE      C21           -24.9202995890       24.9884320571       15.0491006685  MEMB      57              0.0000000000
      6867        57  PMPE      O22           -25.6352977068       25.6337203097       15.7963317677  MEMB      57              0.0000000000
      6868        57  PMPE      C22           -25.4617939662       24.1457053279       13.8738498619  MEMB      57              0.0000000000
      6869        57  PMPE      H2R           -25.6256525241       24.7984623479       12.9925982391  MEMB      57              0.0000000000
      6870        57  PMPE      H2S           -26.3968508349       23.7092600376       14.2235429925  MEMB      57              0.0000000000
      6871        57  PMPE      C3            -21.4493598876       25.3672011360       15.7818711400  MEMB      57              0.0000000000
      6872        57  PMPE      HX            -21.3271605488       24.2668680049       15.8992911700  MEMB      57              0.0000000000
      6873        57  PMPE      HY            -20.7305915907       25.8874430605       16.4444002774  MEMB      57              0.0000000000
      6874        57  PMPE      O31           -21.1770705992       25.7059910144       14.4366280058  MEMB      57              0.0000000000
      6875        57  PMPE      C31           -21.0335058407       26.9509252534       14.1539509732  MEMB      57              0.0000000000
      6876        57  PMPE      O32           -21.2103632814       27.9022566073       14.8804605479  MEMB      57              0.0000000000
      6877        57  PMPE      C32           -20.6175841483       27.0057971360       12.7250387390  MEMB      57              0.0000000000
      6878        57  PMPE      H2X           -20.8082159959       26.0448656253       12.2163177027  MEMB      57              0.0000000000
      6879        57  PMPE      H2Y           -19.5381771108       27.2666826389       12.6365342791  MEMB      57              0.0000000000
      6880        57  PMPE      C23           -24.6778302059       22.9108410491       13.3948822553  MEMB      57              0.0000000000
      6881        57  PMPE      H3R           -24.6666323810       22.1244735824       14.1826720810  MEMB      57              0.0000000000
      6882        57  PMPE      H3S           -23.6374830373       23.2457692825       13.1971335525  MEMB      57              0.0000000000
      6883        57  PMPE      C24           -25.3176920411       22.3285345970       12.1217303657  MEMB      57              0.0000000000
      6884        57  PMPE      H4R           -25.4718324301       23.1603186662       11.3975201829  MEMB      57              0.0000000000
      6885        57  PMPE      H4S           -26.3365113387       21.9204048465       12.3220274328  MEMB      57              0.0000000000
      6886        57  PMPE      C25           -24.4209202215       21.2679157113       11.4696382525  MEMB      57              0.0000000000
      6887        57  PMPE      H5R           -24.5887985559       20.2695045875       11.9394755655  MEMB      57              0.0000000000
      6888        57  PMPE      H5S           -23.3587705213       21.5619306895       11.6080613336  MEMB      57              0.0000000000
      6889        57  PMPE      C26           -24.7016000199       21.1054284600        9.9763776969  MEMB      57              0.0000000000
      6890        57  PMPE      H6R           -24.6046957116       22.0647549617        9.4374201532  MEMB      57              0.0000000000
      6891        57  PMPE      H6S           -25.7692727704       20.8775686502        9.9723387989  MEMB      57              0.0000000000
      6892        57  PMPE      C27           -23.8917181323       19.9629156022        9.3274818628  MEMB      57              0.0000000000
      6893        57  PMPE      H7R           -24.0454499587       19.0765965199        9.9815900080  MEMB      57              0.0000000000
      6894        57  PMPE      H7S           -22.8215184524       20.2325337430        9.3181678088  MEMB      57              0.0000000000
      6895        57  PMPE      C28           -24.2927921249       19.5810349227        7.8895914346  MEMB      57              0.0000000000
      6896        57  PMPE      H8R           -24.6208114049       20.4673408150        7.3192692275  MEMB      57              0.0000000000
      6897        57  PMPE      H8S           -25.2202948451       19.0624168062        7.9583081033  MEMB      57              0.0000000000
      6898        57  PMPE      C29           -23.4381831681       18.4882571058        7.1659772375  MEMB      57              0.0000000000
      6899        57  PMPE      H9R           -22.9915925835       17.6738515459        7.7266668472  MEMB      57              0.0000000000
      6900        57  PMPE      C217          -22.4693915798       18.8360347212        6.1579166146  MEMB      57              0.0000000000
      6901        57  PMPE      H17R          -21.4882577806       18.4412652293        6.3446534155  MEMB      57              0.0000000000
      6902        57  PMPE      H17S          -22.6648499148       19.6555041907        5.4890888622  MEMB      57              0.0000000000
      6903        57  PMPE      C210          -23.6266061763       18.2250613818        5.6631007810  MEMB      57              0.0000000000
      6904        57  PMPE      H10R          -23.2316691736       17.4096906596        5.0771228314  MEMB      57              0.0000000000
      6905        57  PMPE      C211          -24.5765010782       19.2225032859        4.9924014943  MEMB      57              0.0000000000
      6906        57  PMPE      H11R          -24.7065086995       20.3014194665        5.2671304312  MEMB      57              0.0000000000
      6907        57  PMPE      H11S          -25.0731641069       18.6244806315        5.7501536018  MEMB      57              0.0000000000
      6908        57  PMPE      C212          -25.1914478446       18.8788856864        3.6347624460  MEMB      57              0.0000000000
      6909        57  PMPE      H12R          -26.2651995810       19.0341275718        3.5054923374  MEMB      57              0.0000000000
      6910        57  PMPE      H12S          -24.8620457954       17.8427055025        3.4783449933  MEMB      57              0.0000000000
      6911        57  PMPE      C213          -24.7375552746       19.7132553447        2.4659566987  MEMB      57              0.0000000000
      6912        57  PMPE      H13R          -23.8532281783       19.9812360731        3.1008111917  MEMB      57              0.0000000000
      6913        57  PMPE      H13S          -24.8452972961       20.7721649668        2.3085952075  MEMB      57              0.0000000000
      6914        57  PMPE      C214          -24.6496033851       18.8724766556        1.1160810627  MEMB      57              0.0000000000
      6915        57  PMPE      H14R          -25.5397963890       18.4962058774        0.5875421480  MEMB      57              0.0000000000
      6916        57  PMPE      H14S          -24.3751828770       17.8580992473        1.5102237805  MEMB      57              0.0000000000
      6917        57  PMPE      C215          -23.6717566885       19.5011682950        0.0187852587  MEMB      57              0.0000000000
      6918        57  PMPE      H15R          -23.0958526887       18.9502540086       -0.6081719441  MEMB      57              0.0000000000
      6919        57  PMPE      H15S          -22.5805047899       19.5956440428       -0.0823149087  MEMB      57              0.0000000000
      6920        57  PMPE      C216          -24.0433267240       20.4945998267       -0.7842271270  MEMB      57              0.0000000000
      6921        57  PMPE      H16R          -24.7860320099       19.7268806712       -0.9213367260  MEMB      57              0.0000000000
      6922        57  PMPE      H16S          -24.3040306273       21.3823868007       -0.2530834674  MEMB      57              0.0000000000
      6923        57  PMPE      H16T          -23.1769091424       20.5329548971       -1.5104476731  MEMB      57              0.0000000000
      6924        57  PMPE      C33           -21.4806947715       28.0256598464       12.0174257446  MEMB      57              0.0000000000
      6925        57  PMPE      H3X           -21.1531095829       27.7102461049       11.0431549646  MEMB      57              0.0000000000
      6926        57  PMPE      H3Y           -21.1951147969       29.0703619113       12.2517245688  MEMB      57              0.0000000000
      6927        57  PMPE      C34           -22.9792678545       27.8136390636       11.8693238938  MEMB      57              0.0000000000
      6928        57  PMPE      H4X           -23.4099214569       28.5837065685       11.1827170594  MEMB      57              0.0000000000
      6929        57  PMPE      H4Y           -23.4155927132       27.8880108152       12.8721237903  MEMB      57              0.0000000000
      6930        57  PMPE      C35           -23.3394122907       26.4855495605       11.2987836228  MEMB      57              0.0000000000
      6931        57  PMPE      H5X           -24.4413310962       26.2977225764       11.2558508141  MEMB      57              0.0000000000
      6932        57  PMPE      H5Y           -22.8666004086       25.6383541521       11.8615953864  MEMB      57              0.0000000000
      6933        57  PMPE      C36           -22.8822973902       26.3879809832        9.9080839569  MEMB      57              0.0000000000
      6934        57  PMPE      H6X           -21.7640330916       26.4190026773        9.7962224867  MEMB      57              0.0000000000
      6935        57  PMPE      H6Y           -23.3094909183       27.0166173483        9.0964540300  MEMB      57              0.0000000000
      6936        57  PMPE      C37           -23.4260397538       25.0778238403        9.6978914089  MEMB      57              0.0000000000
      6937        57  PMPE      H7X           -24.5535251501       25.0220293289        9.5392774281  MEMB      57              0.0000000000
      6938        57  PMPE      H7Y           -22.9790644202       24.3171616820       10.5013760448  MEMB      57              0.0000000000
      6939        57  PMPE      C38           -22.6654556711       24.9038168348        8.4720190035  MEMB      57              0.0000000000
      6940        57  PMPE      H8X           -23.3277414116       24.0474067096        8.8229656899  MEMB      57              0.0000000000
      6941        57  PMPE      H8Y           -21.6323529614       24.7746488286        8.8799574166  MEMB      57              0.0000000000
      6942        57  PMPE      C39           -22.7543588895       25.2823905340        6.8483464856  MEMB      57              0.0000000000
      6943        57  PMPE      H9X           -22.4361379952       26.3354425542        6.8053830612  MEMB      57              0.0000000000
      6944        57  PMPE      H9Y           -23.7428659319       25.0475601523        6.4777985523  MEMB      57              0.0000000000
      6945        57  PMPE      C310          -22.0364319104       24.7129655632        5.4527313646  MEMB      57              0.0000000000
      6946        57  PMPE      H10X          -22.3534383042       23.8421602575        4.8389275196  MEMB      57              0.0000000000
      6947        57  PMPE      H10Y          -21.0612862264       24.2703095321        5.5126081483  MEMB      57              0.0000000000
      6948        57  PMPE      C311          -22.0675293182       25.4650129947        4.1988302264  MEMB      57              0.0000000000
      6949        57  PMPE      H11X          -21.7850835432       24.8243483982        3.3549801759  MEMB      57              0.0000000000
      6950        57  PMPE      H11Y          -21.2731154434       26.1997925739        4.2710683117  MEMB      57              0.0000000000
      6951        57  PMPE      C312          -23.4584078319       25.9142707903        4.0077550631  MEMB      57              0.0000000000
      6952        57  PMPE      H12X          -23.3444416150       26.6488567884        3.2005498897  MEMB      57              0.0000000000
      6953        57  PMPE      H12Y          -23.7797137157       26.4016733165        4.9439435537  MEMB      57              0.0000000000
      6954        57  PMPE      C313          -24.4122224054       24.7810981454        3.6544380482  MEMB      57              0.0000000000
      6955        57  PMPE      H13X          -25.4126467511       25.2038074211        3.5645533078  MEMB      57              0.0000000000
      6956        57  PMPE      H13Y          -24.5676620282       24.0685305532        4.4924275124  MEMB      57              0.0000000000
      6957        57  PMPE      C314          -23.9765696446       24.0689570875        2.3739307223  MEMB      57              0.0000000000
      6958        57  PMPE      H14X          -23.5221469199       23.0907262748        2.6606277961  MEMB      57              0.0000000000
      6959        57  PMPE      H14Y          -23.3786345152       24.7022124523        1.6904854378  MEMB      57              0.0000000000
      6960        57  PMPE      C315          -25.0300703035       23.6082793112        1.5229061669  MEMB      57              0.0000000000
      6961        57  PMPE      H15X          -24.8571331440       22.8667351968        0.7308493178  MEMB      57              0.0000000000
      6962        57  PMPE      H15Y          -25.3672168266       24.3637237432        0.8597737997  MEMB      57              0.0000000000
      6963        57  PMPE      C316          -25.9641158487       23.1356479688        2.5116105325  MEMB      57              0.0000000000
      6964        57  PMPE      H16X          -25.5632133580       22.3664962518        3.1864882801  MEMB      57              0.0000000000
      6965        57  PMPE      H16Y          -26.4581240727       22.6663874565        1.6774277574  MEMB      57              0.0000000000
      6966        57  PMPE      H16Z          -26.7552852039       23.7298789023        3.0531381995  MEMB      57              0.0000000000
      6967        58  PMPE      N              -8.0191406662       30.1975805049       20.2562559731  MEMB      58              0.0000000000
      6968        58  PMPE      HN1            -8.5281898424       30.6801199653       21.0222916829  MEMB      58              0.0000000000
      6969        58  PMPE      HN2            -7.6093714174       29.3080479496       20.6284588494  MEMB      58              0.0000000000
      6970        58  PMPE      HN3            -7.3099769290       30.8491945723       19.8495539218  MEMB      58              0.0000000000
      6971        58  PMPE      C12            -9.0184508810       29.9244125757       19.1738821910  MEMB      58              0.0000000000
      6972        58  PMPE      H12A           -9.9696858425       29.6519819522       19.6737443731  MEMB      58              0.0000000000
      6973        58  PMPE      H12B           -8.6494264372       29.0614865484       18.5886800005  MEMB      58              0.0000000000
      6974        58  PMPE      C11            -9.1510144262       31.1561626638       18.2636890687  MEMB      58              0.0000000000
      6975        58  PMPE      H11A           -9.8232021347       30.9294940174       17.4050459682  MEMB      58              0.0000000000
      6976        58  PMPE      H11B           -8.1463420107       31.3659273410       17.8170077332  MEMB      58              0.0000000000
      6977        58  PMPE      P             -11.0389285613       32.8840951660       18.9385213148  MEMB      58              0.0000000000
      6978        58  PMPE      O13           -10.9677886636       34.2517198006       19.4432982773  MEMB      58              0.0000000000
      6979        58  PMPE      O14           -11.9165285262       31.9480889472       19.6768743168  MEMB      58              0.0000000000
      6980        58  PMPE      O11           -11.3443800996       32.9271126146       17.4057145642  MEMB      58              0.0000000000
      6981        58  PMPE      O12            -9.5920492698       32.2769006972       19.0180999467  MEMB      58              0.0000000000
      6982        58  PMPE      C1            -12.2550902467       32.0147552831       16.8144035522  MEMB      58              0.0000000000
      6983        58  PMPE      HA            -13.2987554914       32.2916422740       17.0884159427  MEMB      58              0.0000000000
      6984        58  PMPE      HB            -12.0471211164       30.9730587633       17.1540658139  MEMB      58              0.0000000000
      6985        58  PMPE      C2            -12.0885118690       32.0437826513       15.2802715007  MEMB      58              0.0000000000
      6986        58  PMPE      HS            -12.8389866216       31.3746741766       14.7987551483  MEMB      58              0.0000000000
      6987        58  PMPE      O21           -10.7256655951       31.6839996284       15.0054073102  MEMB      58              0.0000000000
      6988        58  PMPE      C21           -10.4906663552       30.7388278718       14.1406778926  MEMB      58              0.0000000000
      6989        58  PMPE      O22           -11.3097962336       30.1461268706       13.4638809081  MEMB      58              0.0000000000
      6990        58  PMPE      C22            -8.9902654328       30.4652601531       14.1846132931  MEMB      58              0.0000000000
      6991        58  PMPE      H2R            -8.7092177677       30.1956028721       15.2206850548  MEMB      58              0.0000000000
      6992        58  PMPE      H2S            -8.4575285846       31.3902980927       13.8757486067  MEMB      58              0.0000000000
      6993        58  PMPE      C3            -12.4373737500       33.4274315510       14.7278889120  MEMB      58              0.0000000000
      6994        58  PMPE      HX            -11.6336259940       34.1736458204       14.9040305362  MEMB      58              0.0000000000
      6995        58  PMPE      HY            -13.3352252334       33.7727966626       15.2980410080  MEMB      58              0.0000000000
      6996        58  PMPE      O31           -12.8122353072       33.3114541533       13.3499675397  MEMB      58              0.0000000000
      6997        58  PMPE      C31           -11.8867727262       33.6276287438       12.4583582299  MEMB      58              0.0000000000
      6998        58  PMPE      O32           -10.6976408550       33.7599236211       12.6699015625  MEMB      58              0.0000000000
      6999        58  PMPE      C32           -12.5698754938       33.7621529308       11.1032052903  MEMB      58              0.0000000000
      7000        58  PMPE      H2X           -12.2433229981       34.7024792140       10.6125898026  MEMB      58              0.0000000000
      7001        58  PMPE      H2Y           -13.6661711429       33.8302674969       11.2653045625  MEMB      58              0.0000000000
      7002        58  PMPE      C23            -8.6206447531       29.3042489135       13.2646720261  MEMB      58              0.0000000000
      7003        58  PMPE      H3R            -9.3384187091       28.4582808932       13.4042116724  MEMB      58              0.0000000000
      7004        58  PMPE      H3S            -7.6167938208       28.9099207263       13.5451020688  MEMB      58              0.0000000000
      7005        58  PMPE      C24            -8.5952234975       29.8097990967       11.8234931304  MEMB      58              0.0000000000
      7006        58  PMPE      H4R            -7.9151139228       30.6847721372       11.7285903075  MEMB      58              0.0000000000
      7007        58  PMPE      H4S            -9.6141877773       30.1636345714       11.5462383144  MEMB      58              0.0000000000
      7008        58  PMPE      C25            -8.0775175652       28.7350611250       10.8817272087  MEMB      58              0.0000000000
      7009        58  PMPE      H5R            -8.6531218930       27.8094809921       11.0848498290  MEMB      58              0.0000000000
      7010        58  PMPE      H5S            -7.0143841057       28.5593882943       11.1536683442  MEMB      58              0.0000000000
      7011        58  PMPE      C26            -8.2046638899       29.1093364444        9.4058900223  MEMB      58              0.0000000000
      7012        58  PMPE      H6R            -9.2027432741       29.5357674929        9.1892000847  MEMB      58              0.0000000000
      7013        58  PMPE      H6S            -8.1003700097       28.1783234450        8.7987357253  MEMB      58              0.0000000000
      7014        58  PMPE      C27            -7.1872727747       30.1639327851        8.9843123504  MEMB      58              0.0000000000
      7015        58  PMPE      H7R            -6.2730625508       29.6581779931        8.8350487328  MEMB      58              0.0000000000
      7016        58  PMPE      H7S            -6.9130011343       30.8850635344        9.7741784400  MEMB      58              0.0000000000
      7017        58  PMPE      C28            -7.4657402709       30.8235361855        7.6507407503  MEMB      58              0.0000000000
      7018        58  PMPE      H8R            -7.8193867108       30.0769068147        6.9083419488  MEMB      58              0.0000000000
      7019        58  PMPE      H8S            -6.5384001204       31.2672331971        7.2983576542  MEMB      58              0.0000000000
      7020        58  PMPE      C29            -8.3656377740       31.9842396964        7.9211164255  MEMB      58              0.0000000000
      7021        58  PMPE      H9R            -8.1547317251       32.5816448569        8.8241392307  MEMB      58              0.0000000000
      7022        58  PMPE      C217           -9.8426763079       31.7562950603        7.6832822244  MEMB      58              0.0000000000
      7023        58  PMPE      H17R          -10.4652772876       32.3165050233        8.3517618736  MEMB      58              0.0000000000
      7024        58  PMPE      H17S          -10.0648568952       30.7860911337        7.2607346715  MEMB      58              0.0000000000
      7025        58  PMPE      C210           -9.0339060571       32.6479903442        6.7608993742  MEMB      58              0.0000000000
      7026        58  PMPE      H10R           -9.1146819620       33.7400100871        6.8730070562  MEMB      58              0.0000000000
      7027        58  PMPE      C211           -8.9117187466       32.0552092855        5.3713272483  MEMB      58              0.0000000000
      7028        58  PMPE      H11R           -8.9276405068       30.9438257941        5.3876167079  MEMB      58              0.0000000000
      7029        58  PMPE      H11S           -7.9446909235       32.3920687272        4.9400333290  MEMB      58              0.0000000000
      7030        58  PMPE      C212          -10.0894415401       32.5201239321        4.4962011648  MEMB      58              0.0000000000
      7031        58  PMPE      H12R          -11.0411251820       32.1263070052        4.9169344636  MEMB      58              0.0000000000
      7032        58  PMPE      H12S           -9.9178677279       32.0238657783        3.5131325588  MEMB      58              0.0000000000
      7033        58  PMPE      C213          -10.1188813171       34.0653829495        4.3871212251  MEMB      58              0.0000000000
      7034        58  PMPE      H13R           -9.0460385092       34.3442209645        4.2585593128  MEMB      58              0.0000000000
      7035        58  PMPE      H13S          -10.3999197026       34.5392115730        5.3327808211  MEMB      58              0.0000000000
      7036        58  PMPE      C214          -11.0619853090       34.7331825231        3.3675705922  MEMB      58              0.0000000000
      7037        58  PMPE      H14R          -10.8799927289       35.8300094405        3.2747407639  MEMB      58              0.0000000000
      7038        58  PMPE      H14S          -12.1407987968       34.4736087163        3.4229013775  MEMB      58              0.0000000000
      7039        58  PMPE      C215          -10.6845550817       34.2689637231        2.0657584972  MEMB      58              0.0000000000
      7040        58  PMPE      H15R          -11.2554807889       34.7194579453        1.2185820862  MEMB      58              0.0000000000
      7041        58  PMPE      H15S          -11.0323298566       33.1990286807        2.0609604631  MEMB      58              0.0000000000
      7042        58  PMPE      C216           -9.1558040513       34.4333095053        1.9742406088  MEMB      58              0.0000000000
      7043        58  PMPE      H16R           -8.9494672589       34.2681578389        1.0123438461  MEMB      58              0.0000000000
      7044        58  PMPE      H16S           -8.7172002522       35.4251386009        1.7442890143  MEMB      58              0.0000000000
      7045        58  PMPE      H16T           -8.5642095278       33.5044712429        2.1171429935  MEMB      58              0.0000000000
      7046        58  PMPE      C33           -12.2349211726       32.5165704114       10.2724347304  MEMB      58              0.0000000000
      7047        58  PMPE      H3X           -11.1471635019       32.2827016916       10.3294501613  MEMB      58              0.0000000000
      7048        58  PMPE      H3Y           -12.4721497670       32.7140884987        9.2014902575  MEMB      58              0.0000000000
      7049        58  PMPE      C34           -13.0483460303       31.3060229003       10.7513175342  MEMB      58              0.0000000000
      7050        58  PMPE      H4X           -14.0993271658       31.5164398616       10.4459658520  MEMB      58              0.0000000000
      7051        58  PMPE      H4Y           -13.0260830150       31.2028035976       11.8593505050  MEMB      58              0.0000000000
      7052        58  PMPE      C35           -12.5920032797       29.9722756376       10.1490715630  MEMB      58              0.0000000000
      7053        58  PMPE      H5X           -13.1061881546       29.1270820497       10.6068320608  MEMB      58              0.0000000000
      7054        58  PMPE      H5Y           -11.5379467249       29.7318002380       10.3915952809  MEMB      58              0.0000000000
      7055        58  PMPE      C36           -12.9702373411       29.9167672995        8.6717784345  MEMB      58              0.0000000000
      7056        58  PMPE      H6X           -12.2920111361       30.6021017677        8.1350990309  MEMB      58              0.0000000000
      7057        58  PMPE      H6Y           -14.0120928530       30.3168601838        8.5921143746  MEMB      58              0.0000000000
      7058        58  PMPE      C37           -12.8778725593       28.5189625076        8.0531152138  MEMB      58              0.0000000000
      7059        58  PMPE      H7X           -13.4667654099       27.8187958676        8.5893825393  MEMB      58              0.0000000000
      7060        58  PMPE      H7Y           -11.9038764577       28.0223749149        8.1795959096  MEMB      58              0.0000000000
      7061        58  PMPE      C38           -13.5080268095       28.3515295728        6.6850622503  MEMB      58              0.0000000000
      7062        58  PMPE      H8X           -14.3886755989       29.0146455736        6.5659419290  MEMB      58              0.0000000000
      7063        58  PMPE      H8Y           -13.8697110849       27.2984805769        6.5685031858  MEMB      58              0.0000000000
      7064        58  PMPE      C39           -12.4825201889       28.6719922661        5.6345176941  MEMB      58              0.0000000000
      7065        58  PMPE      H9X           -11.4782534634       28.3081457534        5.9464144600  MEMB      58              0.0000000000
      7066        58  PMPE      H9Y           -12.4381083781       29.7857878632        5.5952948602  MEMB      58              0.0000000000
      7067        58  PMPE      C310          -12.8987800169       28.0808117588        4.2964724206  MEMB      58              0.0000000000
      7068        58  PMPE      H10X          -14.0111724663       28.0386735308        4.2802526985  MEMB      58              0.0000000000
      7069        58  PMPE      H10Y          -12.5318159482       27.0402807282        4.1567487151  MEMB      58              0.0000000000
      7070        58  PMPE      C311          -12.4422532278       28.9774851755        3.1593854742  MEMB      58              0.0000000000
      7071        58  PMPE      H11X          -12.6821740128       30.0273614715        3.4351149353  MEMB      58              0.0000000000
      7072        58  PMPE      H11Y          -13.0115149231       28.7057155297        2.2435550130  MEMB      58              0.0000000000
      7073        58  PMPE      C312          -10.9504494937       28.8810771084        2.9070125372  MEMB      58              0.0000000000
      7074        58  PMPE      H12X          -10.3615726313       29.2651302189        3.7666519494  MEMB      58              0.0000000000
      7075        58  PMPE      H12Y          -10.6880328909       29.4962826921        2.0095191448  MEMB      58              0.0000000000
      7076        58  PMPE      C313          -10.4966302909       27.4619601423        2.7165475193  MEMB      58              0.0000000000
      7077        58  PMPE      H13X          -11.2287435624       26.8559642017        2.1077387679  MEMB      58              0.0000000000
      7078        58  PMPE      H13Y          -10.2282884959       26.9031565468        3.6310066716  MEMB      58              0.0000000000
      7079        58  PMPE      C314           -9.2542481256       27.5074535169        1.9159549749  MEMB      58              0.0000000000
      7080        58  PMPE      H14X           -9.6445882266       28.0171288502        1.0216869982  MEMB      58              0.0000000000
      7081        58  PMPE      H14Y           -9.1925580863       26.4289017667        1.8832709271  MEMB      58              0.0000000000
      7082        58  PMPE      C315           -7.9146188375       28.0977573998        2.3993045377  MEMB      58              0.0000000000
      7083        58  PMPE      H15X           -7.5877500522       27.3818299084        3.1843935385  MEMB      58              0.0000000000
      7084        58  PMPE      H15Y           -8.2111349292       29.0906252234        2.7762646126  MEMB      58              0.0000000000
      7085        58  PMPE      C316           -6.6951557166       28.3185301065        1.4488314046  MEMB      58              0.0000000000
      7086        58  PMPE      H16X           -5.8865874982       28.9092823250        1.8922668843  MEMB      58              0.0000000000
      7087        58  PMPE      H16Y           -6.9944365830       28.8832465535        0.5292814957  MEMB      58              0.0000000000
      7088        58  PMPE      H16Z           -6.2963353995       27.3332612338        1.1029318066  MEMB      58              0.0000000000
      7089        59  PMPE      N             -14.9256739903      -33.2343192993       18.6324726217  MEMB      59              0.0000000000
      7090        59  PMPE      HN1           -15.1861541821      -32.3401839704       19.0501321689  MEMB      59              0.0000000000
      7091        59  PMPE      HN2           -15.7597465241      -33.7491925882       18.2239236369  MEMB      59              0.0000000000
      7092        59  PMPE      HN3           -14.3409708259      -33.8826770029       19.2018801070  MEMB      59              0.0000000000
      7093        59  PMPE      C12           -14.0522725849      -32.7983131890       17.4860564268  MEMB      59              0.0000000000
      7094        59  PMPE      H12A          -14.6293758693      -32.0597252518       16.8950750367  MEMB      59              0.0000000000
      7095        59  PMPE      H12B          -13.7675930526      -33.6634234038       16.8593456071  MEMB      59              0.0000000000
      7096        59  PMPE      C11           -12.7564829530      -32.2697389138       18.0104167401  MEMB      59              0.0000000000
      7097        59  PMPE      H11A          -12.2177234986      -31.8297433210       17.1240182646  MEMB      59              0.0000000000
      7098        59  PMPE      H11B          -12.1289966594      -33.1237004845       18.3843655405  MEMB      59              0.0000000000
      7099        59  PMPE      P             -11.7461369709      -30.7774934688       19.7668737370  MEMB      59              0.0000000000
      7100        59  PMPE      O13           -11.1595872274      -31.9014314229       20.5040430575  MEMB      59              0.0000000000
      7101        59  PMPE      O14           -12.1968820438      -29.5583419135       20.4662395075  MEMB      59              0.0000000000
      7102        59  PMPE      O11           -10.9708769018      -30.5728475758       18.4668635873  MEMB      59              0.0000000000
      7103        59  PMPE      O12           -13.0613267335      -31.3318123742       19.0598119031  MEMB      59              0.0000000000
      7104        59  PMPE      C1            -10.4205456181      -29.3271243701       18.3477468219  MEMB      59              0.0000000000
      7105        59  PMPE      HA             -9.4833709446      -29.2964833836       18.9685134332  MEMB      59              0.0000000000
      7106        59  PMPE      HB            -11.0494439222      -28.4422467186       18.6643681751  MEMB      59              0.0000000000
      7107        59  PMPE      C2            -10.1323674199      -29.1186060630       16.8872683602  MEMB      59              0.0000000000
      7108        59  PMPE      HS             -9.9721532384      -28.0476488296       16.9385838855  MEMB      59              0.0000000000
      7109        59  PMPE      O21           -11.2099342209      -29.0701018864       15.9367586606  MEMB      59              0.0000000000
      7110        59  PMPE      C21           -11.1277083388      -28.2678111553       14.8253203331  MEMB      59              0.0000000000
      7111        59  PMPE      O22           -10.2785291686      -27.5236355903       14.4294558094  MEMB      59              0.0000000000
      7112        59  PMPE      C22           -12.2547661720      -28.5841921815       13.9585503281  MEMB      59              0.0000000000
      7113        59  PMPE      H2R           -13.0951018620      -27.9507764591       14.2868644333  MEMB      59              0.0000000000
      7114        59  PMPE      H2S           -12.3895900681      -29.6624667213       14.1592506530  MEMB      59              0.0000000000
      7115        59  PMPE      C3             -9.0044532596      -30.2837533739       16.4493544132  MEMB      59              0.0000000000
      7116        59  PMPE      HX             -7.9820254267      -30.4771415274       16.8909815749  MEMB      59              0.0000000000
      7117        59  PMPE      HY             -8.3297439904      -30.0274083525       15.6401443286  MEMB      59              0.0000000000
      7118        59  PMPE      O31            -9.5139037956      -31.3447090044       15.8800599684  MEMB      59              0.0000000000
      7119        59  PMPE      C31            -9.6180237965      -31.3343854529       14.5913664897  MEMB      59              0.0000000000
      7120        59  PMPE      O32            -9.3285357004      -30.5146285177       13.7378656483  MEMB      59              0.0000000000
      7121        59  PMPE      C32            -9.6729720770      -32.6777773082       14.6246021941  MEMB      59              0.0000000000
      7122        59  PMPE      H2X           -10.6268426127      -32.9455856108       15.1838431823  MEMB      59              0.0000000000
      7123        59  PMPE      H2Y            -8.7396468889      -33.1474019063       15.0867090869  MEMB      59              0.0000000000
      7124        59  PMPE      C23           -11.9314408610      -28.4018327084       12.4677395562  MEMB      59              0.0000000000
      7125        59  PMPE      H3R           -10.9525440508      -28.8659778111       12.2025648245  MEMB      59              0.0000000000
      7126        59  PMPE      H3S           -11.8500133538      -27.3291502065       12.2045760327  MEMB      59              0.0000000000
      7127        59  PMPE      C24           -13.0396070291      -29.0870278739       11.6738072818  MEMB      59              0.0000000000
      7128        59  PMPE      H4R           -14.0212074161      -28.7327731110       12.0617021448  MEMB      59              0.0000000000
      7129        59  PMPE      H4S           -12.9922030891      -30.1761310625       11.8689374600  MEMB      59              0.0000000000
      7130        59  PMPE      C25           -12.9289422166      -28.8577843082       10.1753201767  MEMB      59              0.0000000000
      7131        59  PMPE      H5R           -12.0307695088      -29.3838676104        9.7754569405  MEMB      59              0.0000000000
      7132        59  PMPE      H5S           -12.7926037247      -27.7693658142        9.9940350984  MEMB      59              0.0000000000
      7133        59  PMPE      C26           -14.1224429641      -29.3798260814        9.3881692911  MEMB      59              0.0000000000
      7134        59  PMPE      H6R           -15.0915717859      -29.0190704456        9.7993470681  MEMB      59              0.0000000000
      7135        59  PMPE      H6S           -14.1256857528      -30.4927859612        9.4369369438  MEMB      59              0.0000000000
      7136        59  PMPE      C27           -13.9764999768      -28.9403387500        7.9470314204  MEMB      59              0.0000000000
      7137        59  PMPE      H7R           -13.0598815571      -29.3618362566        7.4824835848  MEMB      59              0.0000000000
      7138        59  PMPE      H7S           -13.8961462713      -27.8343012620        7.8563946543  MEMB      59              0.0000000000
      7139        59  PMPE      C28           -15.1012971043      -29.4091807538        7.0967700224  MEMB      59              0.0000000000
      7140        59  PMPE      H8R           -16.0091161417      -28.8533492186        7.3653082203  MEMB      59              0.0000000000
      7141        59  PMPE      H8S           -15.3631559670      -30.4766181454        7.2018321089  MEMB      59              0.0000000000
      7142        59  PMPE      C29           -14.6300750748      -29.0870334584        5.7195841309  MEMB      59              0.0000000000
      7143        59  PMPE      H9R           -13.6719200635      -29.3738042562        5.2885757447  MEMB      59              0.0000000000
      7144        59  PMPE      C217          -15.1277278099      -27.7756674924        5.1885295444  MEMB      59              0.0000000000
      7145        59  PMPE      H17R          -14.6865121231      -27.2708335023        4.3443628792  MEMB      59              0.0000000000
      7146        59  PMPE      H17S          -15.6740225078      -27.2069536705        5.8612596888  MEMB      59              0.0000000000
      7147        59  PMPE      C210          -15.7114210140      -29.1435770221        4.8228055762  MEMB      59              0.0000000000
      7148        59  PMPE      H10R          -15.4039128841      -29.1892421674        3.7804605621  MEMB      59              0.0000000000
      7149        59  PMPE      C211          -17.1211357700      -29.7501116349        5.3277440868  MEMB      59              0.0000000000
      7150        59  PMPE      H11R          -18.0427447391      -29.4323779233        4.7188661664  MEMB      59              0.0000000000
      7151        59  PMPE      H11S          -17.4295362665      -29.5063535345        6.3232485486  MEMB      59              0.0000000000
      7152        59  PMPE      C212          -17.4533890230      -31.0108045314        5.7738914094  MEMB      59              0.0000000000
      7153        59  PMPE      H12R          -18.3432065940      -31.0592209519        6.4617011769  MEMB      59              0.0000000000
      7154        59  PMPE      H12S          -16.5947444704      -31.5832820223        6.1292620804  MEMB      59              0.0000000000
      7155        59  PMPE      C213          -17.8115404726      -31.2583675105        4.4540530671  MEMB      59              0.0000000000
      7156        59  PMPE      H13R          -18.4904019788      -30.7363232143        3.6786705314  MEMB      59              0.0000000000
      7157        59  PMPE      H13S          -18.1937263761      -32.1259203407        5.0259591915  MEMB      59              0.0000000000
      7158        59  PMPE      C214          -16.6508715023      -31.2301478225        3.7551542321  MEMB      59              0.0000000000
      7159        59  PMPE      H14R          -16.7217470808      -32.3393797223        3.9749413659  MEMB      59              0.0000000000
      7160        59  PMPE      H14S          -15.7422184134      -31.3952898221        4.3109913404  MEMB      59              0.0000000000
      7161        59  PMPE      C215          -16.3020871584      -30.4151788427        2.2966463136  MEMB      59              0.0000000000
      7162        59  PMPE      H15R          -17.0817082812      -29.9979442694        1.7167261430  MEMB      59              0.0000000000
      7163        59  PMPE      H15S          -17.2397477501      -30.8379273193        1.8542402060  MEMB      59              0.0000000000
      7164        59  PMPE      C216          -14.6561640132      -30.5889240912        1.5371841694  MEMB      59              0.0000000000
      7165        59  PMPE      H16R          -14.1629757962      -30.9288436002        2.3707718850  MEMB      59              0.0000000000
      7166        59  PMPE      H16S          -14.2622480345      -31.5937016231        1.0299862450  MEMB      59              0.0000000000
      7167        59  PMPE      H16T          -14.2354657573      -30.3697807525        0.5166333833  MEMB      59              0.0000000000
      7168        59  PMPE      C33            -9.7963085783      -32.9303083640       13.2410180735  MEMB      59              0.0000000000
      7169        59  PMPE      H3X           -10.3117016787      -33.8633035966       13.4646440443  MEMB      59              0.0000000000
      7170        59  PMPE      H3Y            -8.8363442300      -33.0208763529       12.6721610419  MEMB      59              0.0000000000
      7171        59  PMPE      C34           -11.0563484348      -32.6024786526       12.5883568715  MEMB      59              0.0000000000
      7172        59  PMPE      H4X           -11.0813150972      -31.5242781542       12.4528249314  MEMB      59              0.0000000000
      7173        59  PMPE      H4Y           -11.9504775324      -33.0390381374       13.1361369449  MEMB      59              0.0000000000
      7174        59  PMPE      C35           -10.9404156325      -33.1455098372       11.2434848910  MEMB      59              0.0000000000
      7175        59  PMPE      H5X           -10.8952060819      -34.2270535402       11.3527464465  MEMB      59              0.0000000000
      7176        59  PMPE      H5Y            -9.9850491880      -33.0664077488       10.7069963013  MEMB      59              0.0000000000
      7177        59  PMPE      C36           -12.1120127712      -32.6078208352       10.4668387463  MEMB      59              0.0000000000
      7178        59  PMPE      H6X           -12.5835400613      -31.6476514552       10.6324367445  MEMB      59              0.0000000000
      7179        59  PMPE      H6Y           -12.9408363592      -33.1392803385       10.9993086936  MEMB      59              0.0000000000
      7180        59  PMPE      C37           -11.7343197023      -32.9910289045        9.0286660369  MEMB      59              0.0000000000
      7181        59  PMPE      H7X           -12.4149711196      -33.5110286871        8.3862885592  MEMB      59              0.0000000000
      7182        59  PMPE      H7Y           -10.9275226258      -33.7455502406        9.0032472019  MEMB      59              0.0000000000
      7183        59  PMPE      C38           -11.6809093391      -31.9441649207        8.0555942170  MEMB      59              0.0000000000
      7184        59  PMPE      H8X           -10.8233135958      -31.4654005876        8.5520118046  MEMB      59              0.0000000000
      7185        59  PMPE      H8Y           -12.6866900867      -31.4550697297        8.1114368978  MEMB      59              0.0000000000
      7186        59  PMPE      C39           -11.3997687970      -32.5995791971        6.7266129988  MEMB      59              0.0000000000
      7187        59  PMPE      H9X           -12.2738898110      -32.7268258053        6.0730662034  MEMB      59              0.0000000000
      7188        59  PMPE      H9Y           -10.8409636600      -33.5728578154        6.7748421125  MEMB      59              0.0000000000
      7189        59  PMPE      C310          -10.7135261797      -31.6669814297        5.8993214520  MEMB      59              0.0000000000
      7190        59  PMPE      H10X           -9.6912257050      -31.7113030740        6.3695340070  MEMB      59              0.0000000000
      7191        59  PMPE      H10Y          -11.0966563853      -30.6375696654        6.0470152913  MEMB      59              0.0000000000
      7192        59  PMPE      C311          -10.8367470617      -32.1872257900        4.4597289278  MEMB      59              0.0000000000
      7193        59  PMPE      H11X          -10.4147045110      -33.2106957573        4.3350710994  MEMB      59              0.0000000000
      7194        59  PMPE      H11Y           -9.9016244153      -31.9381294695        4.1019892179  MEMB      59              0.0000000000
      7195        59  PMPE      C312          -11.9448338089      -31.6406051868        3.3929724689  MEMB      59              0.0000000000
      7196        59  PMPE      H12X          -12.7958384080      -31.7259429073        4.0710573185  MEMB      59              0.0000000000
      7197        59  PMPE      H12Y          -11.9396510573      -32.4767694956        2.6660409510  MEMB      59              0.0000000000
      7198        59  PMPE      C313          -12.1193780176      -30.1484065484        2.6096582089  MEMB      59              0.0000000000
      7199        59  PMPE      H13X          -11.9850867181      -29.4357550718        3.4168941832  MEMB      59              0.0000000000
      7200        59  PMPE      H13Y          -13.0400430122      -29.6820459967        2.6670993789  MEMB      59              0.0000000000
      7201        59  PMPE      C314          -11.4106293081      -29.3576096044        1.3545836095  MEMB      59              0.0000000000
      7202        59  PMPE      H14X          -10.6490113386      -28.7364689478        1.8637015043  MEMB      59              0.0000000000
      7203        59  PMPE      H14Y          -11.7146744367      -28.3149992975        1.2259184312  MEMB      59              0.0000000000
      7204        59  PMPE      C315          -10.8824534773      -30.0509333669        0.0207654173  MEMB      59              0.0000000000
      7205        59  PMPE      H15X          -10.3086204360      -30.9789433718       -0.1607751829  MEMB      59              0.0000000000
      7206        59  PMPE      H15Y           -9.9312951018      -29.7115120579       -0.4214866007  MEMB      59              0.0000000000
      7207        59  PMPE      C316          -12.0349028812      -30.7770145732       -0.5341053646  MEMB      59              0.0000000000
      7208        59  PMPE      H16X          -11.7979529821      -31.4115726181       -1.3989743312  MEMB      59              0.0000000000
      7209        59  PMPE      H16Y          -12.7389895899      -29.9358756199       -0.6659362230  MEMB      59              0.0000000000
      7210        59  PMPE      H16Z          -12.3734781371      -31.4937296144        0.2588881272  MEMB      59              0.0000000000
      7211        60  PMPE      N             -22.6683316283      -26.1205814269       18.7113695810  MEMB      60              0.0000000000
      7212        60  PMPE      HN1           -22.7562513652      -26.1029979756       19.7426829720  MEMB      60              0.0000000000
      7213        60  PMPE      HN2           -23.3360132210      -25.4163806863       18.3068436238  MEMB      60              0.0000000000
      7214        60  PMPE      HN3           -22.7768308567      -27.0508286701       18.2703770993  MEMB      60              0.0000000000
      7215        60  PMPE      C12           -21.2494199071      -25.7725625426       18.4303641090  MEMB      60              0.0000000000
      7216        60  PMPE      H12A          -21.1869838612      -24.7486657982       18.8261004514  MEMB      60              0.0000000000
      7217        60  PMPE      H12B          -21.0807491698      -25.8858993771       17.3270712355  MEMB      60              0.0000000000
      7218        60  PMPE      C11           -20.2165590579      -26.5685812212       19.1583702203  MEMB      60              0.0000000000
      7219        60  PMPE      H11A          -20.4385156945      -26.5238503326       20.2472759225  MEMB      60              0.0000000000
      7220        60  PMPE      H11B          -19.2083528895      -26.1156368984       18.9728171746  MEMB      60              0.0000000000
      7221        60  PMPE      P             -19.3713662316      -28.9957193083       19.2325017781  MEMB      60              0.0000000000
      7222        60  PMPE      O13           -19.7767125279      -29.1372565473       20.6423036807  MEMB      60              0.0000000000
      7223        60  PMPE      O14           -17.9427089838      -28.8081845345       18.8996854117  MEMB      60              0.0000000000
      7224        60  PMPE      O11           -19.8772375712      -30.2552393081       18.4204182868  MEMB      60              0.0000000000
      7225        60  PMPE      O12           -20.3015423232      -27.8632548872       18.6200889630  MEMB      60              0.0000000000
      7226        60  PMPE      C1            -21.2002922301      -30.7648712988       18.6072187036  MEMB      60              0.0000000000
      7227        60  PMPE      HA            -21.8604234498      -30.0116535636       19.1038290259  MEMB      60              0.0000000000
      7228        60  PMPE      HB            -21.1162508436      -31.6341081790       19.2915354235  MEMB      60              0.0000000000
      7229        60  PMPE      C2            -21.9748537847      -31.2169733715       17.2968691579  MEMB      60              0.0000000000
      7230        60  PMPE      HS            -22.8771594620      -31.7492844440       17.6772321183  MEMB      60              0.0000000000
      7231        60  PMPE      O21           -21.2353284494      -32.1299699398       16.4481051328  MEMB      60              0.0000000000
      7232        60  PMPE      C21           -21.9370920110      -32.7161120370       15.4553334798  MEMB      60              0.0000000000
      7233        60  PMPE      O22           -23.1190487936      -32.5531649742       15.2220171572  MEMB      60              0.0000000000
      7234        60  PMPE      C22           -21.0306719985      -33.7034933362       14.6995903804  MEMB      60              0.0000000000
      7235        60  PMPE      H2R           -21.6700413644      -34.5287069348       14.3385212455  MEMB      60              0.0000000000
      7236        60  PMPE      H2S           -20.3149558272      -34.1341932328       15.4348520969  MEMB      60              0.0000000000
      7237        60  PMPE      C3            -22.3834618881      -29.9531331029       16.4720392835  MEMB      60              0.0000000000
      7238        60  PMPE      HX            -22.8713586182      -29.2228962711       17.1488238872  MEMB      60              0.0000000000
      7239        60  PMPE      HY            -23.1408003166      -30.2249017910       15.7029674382  MEMB      60              0.0000000000
      7240        60  PMPE      O31           -21.2110935708      -29.3183599245       15.9378443613  MEMB      60              0.0000000000
      7241        60  PMPE      C31           -21.0992953782      -29.1387956001       14.6349751000  MEMB      60              0.0000000000
      7242        60  PMPE      O32           -21.9914184619      -29.2521768836       13.8104046246  MEMB      60              0.0000000000
      7243        60  PMPE      C32           -19.6568109052      -28.7211832134       14.3392006071  MEMB      60              0.0000000000
      7244        60  PMPE      H2X           -18.9752328183      -29.4005700084       14.8914737724  MEMB      60              0.0000000000
      7245        60  PMPE      H2Y           -19.4682250084      -27.6982221133       14.7220356993  MEMB      60              0.0000000000
      7246        60  PMPE      C23           -20.1684826946      -33.1393934593       13.5384823382  MEMB      60              0.0000000000
      7247        60  PMPE      H3R           -19.5703677419      -34.0161470314       13.1944161313  MEMB      60              0.0000000000
      7248        60  PMPE      H3S           -19.4774731913      -32.3710377257       13.9493100931  MEMB      60              0.0000000000
      7249        60  PMPE      C24           -20.8865759684      -32.6152272342       12.2825190235  MEMB      60              0.0000000000
      7250        60  PMPE      H4R           -20.1252245899      -32.1099323289       11.6374052741  MEMB      60              0.0000000000
      7251        60  PMPE      H4S           -21.6444879968      -31.8479354823       12.5554774511  MEMB      60              0.0000000000
      7252        60  PMPE      C25           -21.5533896809      -33.7479007458       11.4785746972  MEMB      60              0.0000000000
      7253        60  PMPE      H5R           -22.0373661766      -34.4329431849       12.2063200403  MEMB      60              0.0000000000
      7254        60  PMPE      H5S           -20.7727113299      -34.3339491370       10.9460006559  MEMB      60              0.0000000000
      7255        60  PMPE      C26           -22.6241898982      -33.2737274821       10.4836785797  MEMB      60              0.0000000000
      7256        60  PMPE      H6R           -23.4530767414      -32.8106211109       11.0718867180  MEMB      60              0.0000000000
      7257        60  PMPE      H6S           -23.0971726556      -34.1333471020        9.9603113121  MEMB      60              0.0000000000
      7258        60  PMPE      C27           -22.0930339063      -32.2669300462        9.4441280659  MEMB      60              0.0000000000
      7259        60  PMPE      H7R           -21.6614520333      -31.3867628967        9.9634617362  MEMB      60              0.0000000000
      7260        60  PMPE      H7S           -22.9731791413      -31.9076021720        8.8653372511  MEMB      60              0.0000000000
      7261        60  PMPE      C28           -20.9983869973      -32.7772489594        8.4730075830  MEMB      60              0.0000000000
      7262        60  PMPE      H8R           -21.3867400053      -33.6096045021        7.8673176298  MEMB      60              0.0000000000
      7263        60  PMPE      H8S           -20.1337085310      -33.1940494684        9.0234781057  MEMB      60              0.0000000000
      7264        60  PMPE      C29           -20.5055963817      -31.6185499306        7.5736233951  MEMB      60              0.0000000000
      7265        60  PMPE      H9R           -20.1368847253      -30.7189614574        8.0845142006  MEMB      60              0.0000000000
      7266        60  PMPE      C217          -21.6624175527      -31.1455777706        6.7238372860  MEMB      60              0.0000000000
      7267        60  PMPE      H17R          -21.7346607462      -30.0997812453        6.4847026659  MEMB      60              0.0000000000
      7268        60  PMPE      H17S          -22.4335614739      -31.8388701935        6.9123185487  MEMB      60              0.0000000000
      7269        60  PMPE      C210          -20.4837729717      -31.7261276606        6.0514587135  MEMB      60              0.0000000000
      7270        60  PMPE      H10R          -20.0524326038      -30.9345785782        5.4381902448  MEMB      60              0.0000000000
      7271        60  PMPE      C211          -20.6713181183      -33.0583127879        5.3792608981  MEMB      60              0.0000000000
      7272        60  PMPE      H11R          -21.4737204850      -33.6269821291        5.7638181209  MEMB      60              0.0000000000
      7273        60  PMPE      H11S          -19.7865075402      -33.5095606628        5.7225453386  MEMB      60              0.0000000000
      7274        60  PMPE      C212          -20.7170353160      -33.1888263001        3.8531188079  MEMB      60              0.0000000000
      7275        60  PMPE      H12R          -21.3342298020      -32.3789543628        3.4031096223  MEMB      60              0.0000000000
      7276        60  PMPE      H12S          -20.8781137951      -34.2235791337        3.5241999775  MEMB      60              0.0000000000
      7277        60  PMPE      C213          -19.3662593704      -32.9607751328        3.4020741381  MEMB      60              0.0000000000
      7278        60  PMPE      H13R          -18.5685684956      -33.3925649095        3.9833061758  MEMB      60              0.0000000000
      7279        60  PMPE      H13S          -19.6585085148      -31.9908155979        3.7178262893  MEMB      60              0.0000000000
      7280        60  PMPE      C214          -18.7304966614      -32.5832898480        2.1474214763  MEMB      60              0.0000000000
      7281        60  PMPE      H14R          -19.3579943305      -32.1765396116        1.3618533739  MEMB      60              0.0000000000
      7282        60  PMPE      H14S          -19.1815125842      -33.5227743752        2.2997377757  MEMB      60              0.0000000000
      7283        60  PMPE      C215          -17.2621579201      -32.9441288752        1.6995960284  MEMB      60              0.0000000000
      7284        60  PMPE      H15R          -17.0377961790      -33.5991456272        0.8892401451  MEMB      60              0.0000000000
      7285        60  PMPE      H15S          -16.6980219051      -33.7155742676        1.9687329825  MEMB      60              0.0000000000
      7286        60  PMPE      C216          -15.9252502634      -32.9048756400        1.9728917530  MEMB      60              0.0000000000
      7287        60  PMPE      H16R          -15.3893989270      -32.7371695166        2.9278643790  MEMB      60              0.0000000000
      7288        60  PMPE      H16S          -15.2758102822      -33.0024576047        1.1315531053  MEMB      60              0.0000000000
      7289        60  PMPE      H16T          -15.3488389963      -32.2847061836        2.5201506162  MEMB      60              0.0000000000
      7290        60  PMPE      C33           -19.3442581711      -28.8006147366       12.8386400358  MEMB      60              0.0000000000
      7291        60  PMPE      H3X           -19.8500985867      -29.6644347921       12.3496300776  MEMB      60              0.0000000000
      7292        60  PMPE      H3Y           -18.2485238347      -28.9585261948       12.7214621413  MEMB      60              0.0000000000
      7293        60  PMPE      C34           -19.7305975177      -27.5255591822       12.1092399215  MEMB      60              0.0000000000
      7294        60  PMPE      H4X           -19.2380180085      -26.6557770483       12.5996388949  MEMB      60              0.0000000000
      7295        60  PMPE      H4Y           -20.8287345165      -27.3495917058       12.1635490048  MEMB      60              0.0000000000
      7296        60  PMPE      C35           -19.3639871029      -27.6755390126       10.6470549851  MEMB      60              0.0000000000
      7297        60  PMPE      H5X           -19.8689978669      -26.8464099350       10.0909767210  MEMB      60              0.0000000000
      7298        60  PMPE      H5Y           -19.7358182051      -28.6162913040       10.2092605100  MEMB      60              0.0000000000
      7299        60  PMPE      C36           -17.8742260546      -27.7521009952       10.3757401346  MEMB      60              0.0000000000
      7300        60  PMPE      H6X           -17.1675069093      -28.3855926953       10.9295617017  MEMB      60              0.0000000000
      7301        60  PMPE      H6Y           -17.4989465178      -26.8839012870       10.9509336706  MEMB      60              0.0000000000
      7302        60  PMPE      C37           -17.7276319286      -27.8911088244        8.8151355486  MEMB      60              0.0000000000
      7303        60  PMPE      H7X           -17.6693895644      -28.9401137061        8.5253219090  MEMB      60              0.0000000000
      7304        60  PMPE      H7Y           -16.6365864672      -27.6474000210        8.7292677572  MEMB      60              0.0000000000
      7305        60  PMPE      C38           -18.8177393152      -27.1404112973        7.8061020012  MEMB      60              0.0000000000
      7306        60  PMPE      H8X           -19.1346766870      -26.1682535171        8.2001969521  MEMB      60              0.0000000000
      7307        60  PMPE      H8Y           -19.8007192591      -27.6022403987        7.8586266591  MEMB      60              0.0000000000
      7308        60  PMPE      C39           -18.4927870645      -26.5191093747        6.3477879291  MEMB      60              0.0000000000
      7309        60  PMPE      H9X           -17.5041302615      -26.0181381207        6.1140837866  MEMB      60              0.0000000000
      7310        60  PMPE      H9Y           -19.2713774664      -26.0333450361        5.7780448961  MEMB      60              0.0000000000
      7311        60  PMPE      C310          -18.1975042052      -27.4924181879        5.5007997711  MEMB      60              0.0000000000
      7312        60  PMPE      H10X          -19.0209227160      -28.2369003345        5.6382830932  MEMB      60              0.0000000000
      7313        60  PMPE      H10Y          -17.3501058750      -27.7934810725        6.1807704277  MEMB      60              0.0000000000
      7314        60  PMPE      C311          -17.7180608862      -27.3341638649        4.0381920766  MEMB      60              0.0000000000
      7315        60  PMPE      H11X          -17.2441844506      -28.2293725770        3.6897198337  MEMB      60              0.0000000000
      7316        60  PMPE      H11Y          -16.7817908061      -26.8434478346        3.7609014200  MEMB      60              0.0000000000
      7317        60  PMPE      C312          -18.7624441096      -27.6705515880        3.0354438759  MEMB      60              0.0000000000
      7318        60  PMPE      H12X          -19.3452944132      -26.7836790280        3.0029075281  MEMB      60              0.0000000000
      7319        60  PMPE      H12Y          -19.3839129904      -28.5660733810        3.3145022915  MEMB      60              0.0000000000
      7320        60  PMPE      C313          -18.0876595014      -27.8215528872        1.7112534866  MEMB      60              0.0000000000
      7321        60  PMPE      H13X          -17.2468522298      -28.3819893569        1.9277956226  MEMB      60              0.0000000000
      7322        60  PMPE      H13Y          -17.2946122421      -27.1565790336        1.3711783582  MEMB      60              0.0000000000
      7323        60  PMPE      C314          -19.0573046113      -28.1488707796        0.6382452117  MEMB      60              0.0000000000
      7324        60  PMPE      H14X          -18.6176219871      -27.7117647116       -0.2895169837  MEMB      60              0.0000000000
      7325        60  PMPE      H14Y          -20.0033111888      -27.6315070693        0.8924343261  MEMB      60              0.0000000000
      7326        60  PMPE      C315          -19.4206724045      -29.6050674520        0.4925713133  MEMB      60              0.0000000000
      7327        60  PMPE      H15X          -19.6634721491      -30.2420532389        1.3315562894  MEMB      60              0.0000000000
      7328        60  PMPE      H15Y          -18.6327539060      -30.0493653316       -0.0437861052  MEMB      60              0.0000000000
      7329        60  PMPE      C316          -20.4085031069      -29.8473601281       -0.5240246758  MEMB      60              0.0000000000
      7330        60  PMPE      H16X          -20.1182431220      -30.8641591942       -0.9577256011  MEMB      60              0.0000000000
      7331        60  PMPE      H16Y          -20.1648829798      -28.9458307106       -1.1512067998  MEMB      60              0.0000000000
      7332        60  PMPE      H16Z          -21.4724342728      -29.6940845143       -0.5725841082  MEMB      60              0.0000000000
      7333        61  PMPE      N              34.0981721083        2.0724588731       20.5376888787  MEMB      61              0.0000000000
      7334        61  PMPE      HN1            33.3697851178        2.3426450575       21.2287155132  MEMB      61              0.0000000000
      7335        61  PMPE      HN2            34.8234900981        1.4870206047       21.0131283473  MEMB      61              0.0000000000
      7336        61  PMPE      HN3            34.5840188227        2.9000502349       20.1446594474  MEMB      61              0.0000000000
      7337        61  PMPE      C12            33.4773852032        1.3103157488       19.3894266644  MEMB      61              0.0000000000
      7338        61  PMPE      H12A           34.0296849793        1.5644980671       18.4602077378  MEMB      61              0.0000000000
      7339        61  PMPE      H12B           32.4499105716        1.6566122554       19.3373764538  MEMB      61              0.0000000000
      7340        61  PMPE      C11            33.3762770782       -0.2024910097       19.5324682746  MEMB      61              0.0000000000
      7341        61  PMPE      H11A           32.8741773405       -0.6085853711       18.6260007750  MEMB      61              0.0000000000
      7342        61  PMPE      H11B           32.7460914803       -0.5144835326       20.3961466986  MEMB      61              0.0000000000
      7343        61  PMPE      P              35.7006438235       -1.0136931131       18.5155756871  MEMB      61              0.0000000000
      7344        61  PMPE      O13            36.8743146465       -1.6259234787       19.1464429733  MEMB      61              0.0000000000
      7345        61  PMPE      O14            35.8035257076        0.2265333279       17.7203990082  MEMB      61              0.0000000000
      7346        61  PMPE      O11            34.9541605083       -2.1170061668       17.7045344599  MEMB      61              0.0000000000
      7347        61  PMPE      O12            34.6730657522       -0.7132667397       19.6887479226  MEMB      61              0.0000000000
      7348        61  PMPE      C1             34.4918409067       -3.3474238248       18.2892380278  MEMB      61              0.0000000000
      7349        61  PMPE      HA             33.8781867048       -3.1299316232       19.2029982657  MEMB      61              0.0000000000
      7350        61  PMPE      HB             35.3048384129       -4.0435543473       18.5290280534  MEMB      61              0.0000000000
      7351        61  PMPE      C2             33.4831233982       -3.9732681318       17.3304930771  MEMB      61              0.0000000000
      7352        61  PMPE      HS             32.9537346155       -4.8180329923       17.8535675510  MEMB      61              0.0000000000
      7353        61  PMPE      O21            34.0198375102       -4.4465920121       16.1245464906  MEMB      61              0.0000000000
      7354        61  PMPE      C21            33.5914340118       -4.6926202103       14.8908919599  MEMB      61              0.0000000000
      7355        61  PMPE      O22            32.5487470490       -5.0859298682       14.5037719486  MEMB      61              0.0000000000
      7356        61  PMPE      C22            34.6352151084       -4.5150297002       13.8180011136  MEMB      61              0.0000000000
      7357        61  PMPE      H2R            35.1060116353       -5.4082866412       13.4957237360  MEMB      61              0.0000000000
      7358        61  PMPE      H2S            35.5406641335       -4.0066924374       14.1241374807  MEMB      61              0.0000000000
      7359        61  PMPE      C3             32.6988939669       -2.7271922761       17.1102350475  MEMB      61              0.0000000000
      7360        61  PMPE      HX             32.2030361581       -2.2743659746       17.9841606871  MEMB      61              0.0000000000
      7361        61  PMPE      HY             31.9356429106       -3.1361984049       16.7257701952  MEMB      61              0.0000000000
      7362        61  PMPE      O31            33.0067235590       -2.0185600883       15.9358520493  MEMB      61              0.0000000000
      7363        61  PMPE      C31            32.2424044879       -1.0360257633       15.6447231005  MEMB      61              0.0000000000
      7364        61  PMPE      O32            31.2788050814       -0.6050522779       16.2778392938  MEMB      61              0.0000000000
      7365        61  PMPE      C32            32.9342692853       -0.4269435355       14.4907290743  MEMB      61              0.0000000000
      7366        61  PMPE      H2X            32.9765980846       -1.0867711291       13.5959906338  MEMB      61              0.0000000000
      7367        61  PMPE      H2Y            33.9801324729       -0.3008680092       14.8587256099  MEMB      61              0.0000000000
      7368        61  PMPE      C23            33.9497865428       -4.2798063936       12.5139440717  MEMB      61              0.0000000000
      7369        61  PMPE      H3R            33.9567002585       -3.1819086082       12.5884019730  MEMB      61              0.0000000000
      7370        61  PMPE      H3S            32.9331272429       -4.7335500487       12.4119184830  MEMB      61              0.0000000000
      7371        61  PMPE      C24            34.6941089048       -4.8060986751       11.3114452527  MEMB      61              0.0000000000
      7372        61  PMPE      H4R            34.8754528510       -5.8967117246       11.3156807630  MEMB      61              0.0000000000
      7373        61  PMPE      H4S            35.6509762039       -4.3039405576       11.3820841722  MEMB      61              0.0000000000
      7374        61  PMPE      C25            33.8975698059       -4.4098654019       10.0819802484  MEMB      61              0.0000000000
      7375        61  PMPE      H5R            33.9468861688       -3.3209451088        9.9321536786  MEMB      61              0.0000000000
      7376        61  PMPE      H5S            32.8935943991       -4.8557917126       10.2382935438  MEMB      61              0.0000000000
      7377        61  PMPE      C26            34.3782034004       -4.9416968132        8.7923312994  MEMB      61              0.0000000000
      7378        61  PMPE      H6R            34.4491071616       -6.0094193408        9.0695233041  MEMB      61              0.0000000000
      7379        61  PMPE      H6S            35.3454486971       -4.4496971155        8.5438421670  MEMB      61              0.0000000000
      7380        61  PMPE      C27            33.6084113181       -4.8860017105        7.5086723781  MEMB      61              0.0000000000
      7381        61  PMPE      H7R            32.6628975682       -4.3897955730        7.7269868987  MEMB      61              0.0000000000
      7382        61  PMPE      H7S            33.3825433718       -5.9282268301        7.1916012545  MEMB      61              0.0000000000
      7383        61  PMPE      C28            34.4165050641       -4.2444692077        6.3568203204  MEMB      61              0.0000000000
      7384        61  PMPE      H8R            35.2729615172       -4.8075662932        5.9280885713  MEMB      61              0.0000000000
      7385        61  PMPE      H8S            34.9187406294       -3.3317347413        6.6680619694  MEMB      61              0.0000000000
      7386        61  PMPE      C29            33.3713452434       -4.0129505570        5.3295849550  MEMB      61              0.0000000000
      7387        61  PMPE      H9R            32.5601403011       -3.3295714830        5.5410681212  MEMB      61              0.0000000000
      7388        61  PMPE      C217           32.9265202849       -5.3100265115        4.7668799587  MEMB      61              0.0000000000
      7389        61  PMPE      H17R           31.8932128154       -5.4437072784        4.4609507298  MEMB      61              0.0000000000
      7390        61  PMPE      H17S           33.5619606315       -6.1344284827        5.0585625724  MEMB      61              0.0000000000
      7391        61  PMPE      C210           33.6747474904       -4.2544257995        3.9002985344  MEMB      61              0.0000000000
      7392        61  PMPE      H10R           32.9934997094       -3.8999525880        3.1326831323  MEMB      61              0.0000000000
      7393        61  PMPE      C211           35.1431554356       -4.5055990253        3.4773402477  MEMB      61              0.0000000000
      7394        61  PMPE      H11R           35.3346870726       -5.3935782975        4.1445311747  MEMB      61              0.0000000000
      7395        61  PMPE      H11S           35.9103477477       -3.8440605956        3.8183241350  MEMB      61              0.0000000000
      7396        61  PMPE      C212           35.4193784010       -4.6078231209        1.8346140591  MEMB      61              0.0000000000
      7397        61  PMPE      H12R           35.2527762894       -3.5798724079        1.5446546113  MEMB      61              0.0000000000
      7398        61  PMPE      H12S           34.4182892933       -5.0340229672        1.6667943871  MEMB      61              0.0000000000
      7399        61  PMPE      C213           36.7162706789       -5.4434516519        0.8749039973  MEMB      61              0.0000000000
      7400        61  PMPE      H13R           37.3697781006       -6.3147777465        0.9034362110  MEMB      61              0.0000000000
      7401        61  PMPE      H13S           37.5566659407       -4.8379840714        1.0704564857  MEMB      61              0.0000000000
      7402        61  PMPE      C214           36.5059483450       -6.6783825269       -0.2500258039  MEMB      61              0.0000000000
      7403        61  PMPE      H14R           36.1731079768       -5.8281318793       -0.5921402535  MEMB      61              0.0000000000
      7404        61  PMPE      H14S           35.5565640500       -7.2373541477       -0.4202715984  MEMB      61              0.0000000000
      7405        61  PMPE      C215           37.7071117131       -7.3539900969       -0.9763040025  MEMB      61              0.0000000000
      7406        61  PMPE      H15R           37.3630096945       -8.2902631898       -1.4759395502  MEMB      61              0.0000000000
      7407        61  PMPE      H15S           38.4661856404       -7.7135750946       -0.2542496907  MEMB      61              0.0000000000
      7408        61  PMPE      C216           38.5221794130       -6.4254763475       -1.8577074566  MEMB      61              0.0000000000
      7409        61  PMPE      H16R           38.1490084904       -6.4833896256       -2.9033726006  MEMB      61              0.0000000000
      7410        61  PMPE      H16S           38.4409358494       -5.3736789004       -1.4939162890  MEMB      61              0.0000000000
      7411        61  PMPE      H16T           39.5881104515       -6.7061878721       -1.7786733433  MEMB      61              0.0000000000
      7412        61  PMPE      C33            32.2975267887        0.9097273202       14.2493810515  MEMB      61              0.0000000000
      7413        61  PMPE      H3X            32.2280216201        1.4834436662       15.2043151847  MEMB      61              0.0000000000
      7414        61  PMPE      H3Y            31.2740373002        0.8734688544       13.8061085752  MEMB      61              0.0000000000
      7415        61  PMPE      C34            33.1616919684        1.7029355991       13.3181234546  MEMB      61              0.0000000000
      7416        61  PMPE      H4X            34.0497824434        2.0643117691       13.9037112185  MEMB      61              0.0000000000
      7417        61  PMPE      H4Y            32.4025119659        2.4719427996       13.0626503784  MEMB      61              0.0000000000
      7418        61  PMPE      C35            33.6295953951        1.0658779151       12.0132955140  MEMB      61              0.0000000000
      7419        61  PMPE      H5X            34.1352058581        0.1280613877       12.2784141797  MEMB      61              0.0000000000
      7420        61  PMPE      H5Y            34.3822345922        1.6005393635       11.4228326796  MEMB      61              0.0000000000
      7421        61  PMPE      C36            32.5531300732        0.9617263593       10.9527519047  MEMB      61              0.0000000000
      7422        61  PMPE      H6X            32.1159135215        1.9625637155       10.7119082962  MEMB      61              0.0000000000
      7423        61  PMPE      H6Y            31.7762680404        0.2882756598       11.3642327421  MEMB      61              0.0000000000
      7424        61  PMPE      C37            33.0954964188        0.3282363043        9.6812583321  MEMB      61              0.0000000000
      7425        61  PMPE      H7X            32.2446525622        0.1886267592        8.9813544218  MEMB      61              0.0000000000
      7426        61  PMPE      H7Y            33.5670663034       -0.6526553735        9.9163310184  MEMB      61              0.0000000000
      7427        61  PMPE      C38            34.1008864850        1.1076923536        8.8634480528  MEMB      61              0.0000000000
      7428        61  PMPE      H8X            35.0524859840        1.2666992012        9.4317092552  MEMB      61              0.0000000000
      7429        61  PMPE      H8Y            33.6696124770        2.1132059299        8.6309253847  MEMB      61              0.0000000000
      7430        61  PMPE      C39            34.3130405774        0.2487288370        7.6044775150  MEMB      61              0.0000000000
      7431        61  PMPE      H9X            33.5432811661        0.4294541728        6.8315030129  MEMB      61              0.0000000000
      7432        61  PMPE      H9Y            34.6157863595       -0.7901786102        7.8670841383  MEMB      61              0.0000000000
      7433        61  PMPE      C310           35.4861194010        0.6357591344        6.8367100707  MEMB      61              0.0000000000
      7434        61  PMPE      H10X           36.2967428017        0.2555069614        7.4696450920  MEMB      61              0.0000000000
      7435        61  PMPE      H10Y           35.3442997702        1.7108943577        7.0052790362  MEMB      61              0.0000000000
      7436        61  PMPE      C311           35.8529965939        0.1280732810        5.4206853317  MEMB      61              0.0000000000
      7437        61  PMPE      H11X           36.7240506143        0.5029426498        4.8003968051  MEMB      61              0.0000000000
      7438        61  PMPE      H11Y           35.1275415703        0.4620605165        4.6849395996  MEMB      61              0.0000000000
      7439        61  PMPE      C312           36.5852247429       -1.1590863430        5.6417077357  MEMB      61              0.0000000000
      7440        61  PMPE      H12X           35.7380129008       -1.7375141991        5.9963986806  MEMB      61              0.0000000000
      7441        61  PMPE      H12Y           37.3515895156       -1.1771956927        6.4429925364  MEMB      61              0.0000000000
      7442        61  PMPE      C313           37.3333641648       -1.5331078961        4.4040204537  MEMB      61              0.0000000000
      7443        61  PMPE      H13X           37.6514856505       -2.5831001698        4.5137035390  MEMB      61              0.0000000000
      7444        61  PMPE      H13Y           38.2201887630       -0.8703453860        4.2143900419  MEMB      61              0.0000000000
      7445        61  PMPE      C314           36.4299485100       -1.3416044115        3.2421328690  MEMB      61              0.0000000000
      7446        61  PMPE      H14X           36.2976488625       -0.2614919632        2.9632588746  MEMB      61              0.0000000000
      7447        61  PMPE      H14Y           35.4050300823       -1.7449208933        3.4547930100  MEMB      61              0.0000000000
      7448        61  PMPE      C315           37.0842899386       -1.9903712932        2.0723780907  MEMB      61              0.0000000000
      7449        61  PMPE      H15X           36.5245725351       -1.3588592480        1.4233082321  MEMB      61              0.0000000000
      7450        61  PMPE      H15Y           36.9518238895       -3.0572295735        2.0368820086  MEMB      61              0.0000000000
      7451        61  PMPE      C316           38.4730302547       -1.7460512429        1.5848793588  MEMB      61              0.0000000000
      7452        61  PMPE      H16X           38.5247620527       -1.8997181010        0.4771309410  MEMB      61              0.0000000000
      7453        61  PMPE      H16Y           39.1492680397       -2.4791433430        2.0593056712  MEMB      61              0.0000000000
      7454        61  PMPE      H16Z           38.7071530175       -0.7014523176        1.8426943256  MEMB      61              0.0000000000
      7455        62  PMPG      C13            10.9835820973      -35.4432565796       20.1697247055  MEMB      62              0.0000000000
      7456        62  PMPG      H13A           11.8798246564      -35.4575359468       20.8271405405  MEMB      62              0.0000000000
      7457        62  PMPG      H13B           10.4579366524      -36.4152266192       20.2248877169  MEMB      62              0.0000000000
      7458        62  PMPG      OC3            11.3873703625      -35.2556465021       18.8273172861  MEMB      62              0.0000000000
      7459        62  PMPG      HO3            10.8411934929      -34.5213383622       18.5059175072  MEMB      62              0.0000000000
      7460        62  PMPG      C12            10.1319895833      -34.2627734856       20.6683692629  MEMB      62              0.0000000000
      7461        62  PMPG      H12A           10.1258521095      -34.3181375911       21.7607895176  MEMB      62              0.0000000000
      7462        62  PMPG      OC2             8.7668012282      -34.4082139075       20.3117222833  MEMB      62              0.0000000000
      7463        62  PMPG      HO2             8.3880968566      -33.5524363111       20.4979381145  MEMB      62              0.0000000000
      7464        62  PMPG      C11            10.7260319994      -32.8999476789       20.2207620778  MEMB      62              0.0000000000
      7465        62  PMPG      H11A           11.8349068975      -32.9728337990       20.3552964069  MEMB      62              0.0000000000
      7466        62  PMPG      H11B           10.3352073709      -32.0633959582       20.8205071950  MEMB      62              0.0000000000
      7467        62  PMPG      P              11.3150004082      -31.8141463081       17.9028825522  MEMB      62              0.0000000000
      7468        62  PMPG      O13            12.4031269976      -32.6813366135       17.4199689527  MEMB      62              0.0000000000
      7469        62  PMPG      O14            11.6942795337      -30.5908578257       18.6232295856  MEMB      62              0.0000000000
      7470        62  PMPG      O11            10.2655259614      -31.5080733678       16.7634949970  MEMB      62              0.0000000000
      7471        62  PMPG      O12            10.3871777788      -32.6415904576       18.8809039283  MEMB      62              0.0000000000
      7472        62  PMPG      C1              9.1632145434      -32.4352610801       16.7612492837  MEMB      62              0.0000000000
      7473        62  PMPG      HA              8.5145959683      -32.2136953858       15.9869251002  MEMB      62              0.0000000000
      7474        62  PMPG      HB              8.4182385285      -32.2158803987       17.5257004920  MEMB      62              0.0000000000
      7475        62  PMPG      C2              9.4094383560      -33.8578337641       16.2052871526  MEMB      62              0.0000000000
      7476        62  PMPG      HS              9.5952901074      -34.4607205418       17.1130827230  MEMB      62              0.0000000000
      7477        62  PMPG      O21            10.5188924743      -33.7490382384       15.3344804882  MEMB      62              0.0000000000
      7478        62  PMPG      C21            11.0884478987      -34.8819379544       15.2166512066  MEMB      62              0.0000000000
      7479        62  PMPG      O22            10.8338896213      -35.9151959760       15.8091720775  MEMB      62              0.0000000000
      7480        62  PMPG      C22            12.0009236723      -34.6898687993       14.0605971404  MEMB      62              0.0000000000
      7481        62  PMPG      H2R            12.4262850766      -33.6779026203       14.0085799575  MEMB      62              0.0000000000
      7482        62  PMPG      H2S            11.4766239518      -34.8364580286       13.0972787960  MEMB      62              0.0000000000
      7483        62  PMPG      C3              8.2611286975      -34.5315912890       15.3776707570  MEMB      62              0.0000000000
      7484        62  PMPG      HX              7.3239169823      -34.3660911184       15.9676956335  MEMB      62              0.0000000000
      7485        62  PMPG      HY              8.4295245801      -35.6197557422       15.3375201465  MEMB      62              0.0000000000
      7486        62  PMPG      O31             8.2830258419      -34.0264794928       14.0139315053  MEMB      62              0.0000000000
      7487        62  PMPG      C31             7.8828274695      -34.7563803544       12.9625109948  MEMB      62              0.0000000000
      7488        62  PMPG      O32             7.4939243591      -35.9032624739       13.0105024659  MEMB      62              0.0000000000
      7489        62  PMPG      C32             7.9522123008      -33.9828017432       11.6199317555  MEMB      62              0.0000000000
      7490        62  PMPG      H2X             8.6821230871      -34.4758508364       10.9656166252  MEMB      62              0.0000000000
      7491        62  PMPG      H2Y             8.2687627582      -32.9628639788       11.6632909928  MEMB      62              0.0000000000
      7492        62  PMPG      C23            13.1021486866      -35.6165678143       14.3707892891  MEMB      62              0.0000000000
      7493        62  PMPG      H3R            13.4676267823      -35.7877224807       15.4104078096  MEMB      62              0.0000000000
      7494        62  PMPG      H3S            13.9729156841      -35.1938660898       13.8985310921  MEMB      62              0.0000000000
      7495        62  PMPG      C24            12.7371064291      -36.9226252174       13.8360256128  MEMB      62              0.0000000000
      7496        62  PMPG      H4R            12.1319847796      -37.5124190119       14.5708424076  MEMB      62              0.0000000000
      7497        62  PMPG      H4S            13.7475403985      -37.3814763461       13.9293181025  MEMB      62              0.0000000000
      7498        62  PMPG      C25            11.9495696347      -36.9586514613       12.4754170593  MEMB      62              0.0000000000
      7499        62  PMPG      H5R            10.9193426801      -36.7193169020       12.2871009505  MEMB      62              0.0000000000
      7500        62  PMPG      H5S            11.6486009837      -37.9608321285       12.6396674853  MEMB      62              0.0000000000
      7501        62  PMPG      C26            12.7051990934      -36.5652122823       11.1959209886  MEMB      62              0.0000000000
      7502        62  PMPG      H6R            13.5677731780      -37.1916914527       11.5091584546  MEMB      62              0.0000000000
      7503        62  PMPG      H6S            12.9360673691      -35.4987658732       11.3302129797  MEMB      62              0.0000000000
      7504        62  PMPG      C27            12.4484390432      -36.8951968277        9.6266541651  MEMB      62              0.0000000000
      7505        62  PMPG      H7R            11.4061524178      -36.6649020175        9.4453487259  MEMB      62              0.0000000000
      7506        62  PMPG      H7S            12.4587180992      -37.9764456140        9.3978161337  MEMB      62              0.0000000000
      7507        62  PMPG      C28            13.3195534445      -36.2525864990        8.4385593073  MEMB      62              0.0000000000
      7508        62  PMPG      H8R            13.4477217125      -36.8330230792        7.5018816009  MEMB      62              0.0000000000
      7509        62  PMPG      H8S            14.3961292926      -36.1876121573        8.3588874878  MEMB      62              0.0000000000
      7510        62  PMPG      C29            13.4347791314      -34.8022710526        8.5112232282  MEMB      62              0.0000000000
      7511        62  PMPG      H9R            13.8043443075      -34.3076261690        9.4322821111  MEMB      62              0.0000000000
      7512        62  PMPG      C217           13.7991810809      -34.0825387158        7.2368754485  MEMB      62              0.0000000000
      7513        62  PMPG      H17R           14.2725636714      -33.1401706449        7.4523410179  MEMB      62              0.0000000000
      7514        62  PMPG      H17S           14.1819130353      -34.7647724869        6.5053276190  MEMB      62              0.0000000000
      7515        62  PMPG      C210           12.3493728397      -34.2847721917        7.6993092166  MEMB      62              0.0000000000
      7516        62  PMPG      H10R           11.8429995472      -33.6012811097        8.3859956781  MEMB      62              0.0000000000
      7517        62  PMPG      C211           11.5273733505      -35.3341330287        6.9180394668  MEMB      62              0.0000000000
      7518        62  PMPG      H11R           12.1572229131      -35.9858079638        6.2688605996  MEMB      62              0.0000000000
      7519        62  PMPG      H11S           10.9290261955      -36.0190082320        7.5613621392  MEMB      62              0.0000000000
      7520        62  PMPG      C212           10.5878140185      -34.5652241364        6.0063959477  MEMB      62              0.0000000000
      7521        62  PMPG      H12R           11.2173542401      -33.8795472397        5.3997467096  MEMB      62              0.0000000000
      7522        62  PMPG      H12S            9.9273994517      -33.9402486908        6.6467670813  MEMB      62              0.0000000000
      7523        62  PMPG      C213            9.7499478617      -35.4952238652        5.1191340125  MEMB      62              0.0000000000
      7524        62  PMPG      H13R            8.6770952201      -35.3353982846        5.3467356923  MEMB      62              0.0000000000
      7525        62  PMPG      H13S            9.9583755501      -36.5428952483        5.4336757342  MEMB      62              0.0000000000
      7526        62  PMPG      C214           10.0485351485      -35.3393460928        3.6102260768  MEMB      62              0.0000000000
      7527        62  PMPG      H14R            9.5693929529      -36.1705678134        3.0446602016  MEMB      62              0.0000000000
      7528        62  PMPG      H14S           11.1551800548      -35.4209811235        3.4997604120  MEMB      62              0.0000000000
      7529        62  PMPG      C215            9.5750375140      -34.0130365357        2.9854411375  MEMB      62              0.0000000000
      7530        62  PMPG      H15R            9.7086931967      -33.9839026447        1.8786682557  MEMB      62              0.0000000000
      7531        62  PMPG      H15S           10.2374266212      -33.2136774046        3.3833962098  MEMB      62              0.0000000000
      7532        62  PMPG      C216            8.1098466501      -33.6864740476        3.2761974376  MEMB      62              0.0000000000
      7533        62  PMPG      H16R            7.4292065769      -34.4081356879        2.7758616403  MEMB      62              0.0000000000
      7534        62  PMPG      H16S            7.8750179421      -32.6716196128        2.8976137029  MEMB      62              0.0000000000
      7535        62  PMPG      H16T            7.8984106591      -33.7239253388        4.3652186303  MEMB      62              0.0000000000
      7536        62  PMPG      C33             6.6008752301      -33.7613537906       10.9282928514  MEMB      62              0.0000000000
      7537        62  PMPG      H3X             5.9990440928      -33.0483918138       11.5573528789  MEMB      62              0.0000000000
      7538        62  PMPG      H3Y             6.1148045547      -34.7204032136       10.7479968990  MEMB      62              0.0000000000
      7539        62  PMPG      C34             6.7417531064      -33.2048871419        9.5514447081  MEMB      62              0.0000000000
      7540        62  PMPG      H4X             5.8967264198      -33.2615987816        8.8634482886  MEMB      62              0.0000000000
      7541        62  PMPG      H4Y             7.6909156793      -33.5217743130        9.0217519911  MEMB      62              0.0000000000
      7542        62  PMPG      C35             6.8216747824      -31.7992854375        9.7190982884  MEMB      62              0.0000000000
      7543        62  PMPG      H5X             7.6739124281      -31.6745485807       10.3055554076  MEMB      62              0.0000000000
      7544        62  PMPG      H5Y             5.9752060203      -31.1122386178       10.0479282926  MEMB      62              0.0000000000
      7545        62  PMPG      C36             7.6454168026      -31.5533875347        8.5867980509  MEMB      62              0.0000000000
      7546        62  PMPG      H6X             7.0057439084      -30.6045479035        8.5742113911  MEMB      62              0.0000000000
      7547        62  PMPG      H6Y             7.1106032230      -31.5468615472        7.6275085872  MEMB      62              0.0000000000
      7548        62  PMPG      C37             9.4730484944      -31.6373647097        8.6310167979  MEMB      62              0.0000000000
      7549        62  PMPG      H7X             9.6871158099      -32.5404443909        9.1085448587  MEMB      62              0.0000000000
      7550        62  PMPG      H7Y            10.1211157392      -30.8803846167        9.1378900708  MEMB      62              0.0000000000
      7551        62  PMPG      C38            10.6228959061      -30.9380252875        7.6165617991  MEMB      62              0.0000000000
      7552        62  PMPG      H8X            10.7410759949      -29.7989568996        7.8186779632  MEMB      62              0.0000000000
      7553        62  PMPG      H8Y            10.3158613062      -31.1030599868        6.5719391151  MEMB      62              0.0000000000
      7554        62  PMPG      C39            12.0846592197      -30.8474849880        7.5908098966  MEMB      62              0.0000000000
      7555        62  PMPG      H9X            12.1433525974      -31.9163008623        7.4803277146  MEMB      62              0.0000000000
      7556        62  PMPG      H9Y            12.4037921905      -30.3371825574        8.5375983376  MEMB      62              0.0000000000
      7557        62  PMPG      C310           12.5094269277      -30.1253468964        6.2906835287  MEMB      62              0.0000000000
      7558        62  PMPG      H10X           13.5919651834      -30.0508985724        6.3359146635  MEMB      62              0.0000000000
      7559        62  PMPG      H10Y           12.2829008718      -29.0660612535        6.3645528420  MEMB      62              0.0000000000
      7560        62  PMPG      C311           12.0557733019      -30.8674238057        4.9985936110  MEMB      62              0.0000000000
      7561        62  PMPG      H11X           11.0222322071      -30.6104238216        4.6540742760  MEMB      62              0.0000000000
      7562        62  PMPG      H11Y           12.0523916587      -31.9328833455        5.3184218061  MEMB      62              0.0000000000
      7563        62  PMPG      C312           13.0359024032      -30.8078789297        3.8297528961  MEMB      62              0.0000000000
      7564        62  PMPG      H12X           14.0630132471      -30.9748000016        4.1766294417  MEMB      62              0.0000000000
      7565        62  PMPG      H12Y           13.1582774518      -29.8126636999        3.4404472518  MEMB      62              0.0000000000
      7566        62  PMPG      C313           12.7239971007      -31.7264757352        2.6501529399  MEMB      62              0.0000000000
      7567        62  PMPG      H13X           11.6730778383      -31.6142089657        2.2947378991  MEMB      62              0.0000000000
      7568        62  PMPG      H13Y           12.8481708843      -32.7696819705        3.0145010179  MEMB      62              0.0000000000
      7569        62  PMPG      C314           13.7009846068      -31.4509543071        1.4931578445  MEMB      62              0.0000000000
      7570        62  PMPG      H14X           14.7322269548      -31.3249543522        1.8825833364  MEMB      62              0.0000000000
      7571        62  PMPG      H14Y           13.3941810877      -30.5197758732        0.9642178917  MEMB      62              0.0000000000
      7572        62  PMPG      C315           13.7284144331      -32.6079216937        0.5088759685  MEMB      62              0.0000000000
      7573        62  PMPG      H15X           12.6484817525      -32.7816006343        0.3725119488  MEMB      62              0.0000000000
      7574        62  PMPG      H15Y           14.2151233789      -33.4883260625        0.9887777886  MEMB      62              0.0000000000
      7575        62  PMPG      C316           14.3849420683      -32.3373143367       -0.8422005178  MEMB      62              0.0000000000
      7576        62  PMPG      H16X           15.4550887364      -32.0845515570       -0.6984347520  MEMB      62              0.0000000000
      7577        62  PMPG      H16Y           13.8668873541      -31.4939464420       -1.3478394692  MEMB      62              0.0000000000
      7578        62  PMPG      H16Z           14.3430402378      -33.2282900796       -1.5045834366  MEMB      62              0.0000000000
      7579        63  POPE      N              -3.0754437847      -33.0081746865       16.6683881740  MEMB      63              0.0000000000
      7580        63  POPE      HN1            -2.8383331294      -34.0109296313       16.8529042276  MEMB      63              0.0000000000
      7581        63  POPE      HN2            -3.3635951015      -32.9496141914       15.6760467878  MEMB      63              0.0000000000
      7582        63  POPE      HN3            -2.2103156554      -32.4584968375       16.8413719640  MEMB      63              0.0000000000
      7583        63  POPE      C12            -4.2568686555      -32.7092424692       17.5511925054  MEMB      63              0.0000000000
      7584        63  POPE      H12A           -5.1395870835      -33.1878908925       17.0703945216  MEMB      63              0.0000000000
      7585        63  POPE      H12B           -4.4070548063      -31.6154290981       17.5840427127  MEMB      63              0.0000000000
      7586        63  POPE      C11            -3.9874373361      -33.2700067188       18.9444986258  MEMB      63              0.0000000000
      7587        63  POPE      H11A           -4.7923444948      -32.9755928009       19.6697373064  MEMB      63              0.0000000000
      7588        63  POPE      H11B           -3.0350976415      -32.8476962459       19.3199962593  MEMB      63              0.0000000000
      7589        63  POPE      P              -4.6221285396      -35.5592535918       19.8495667573  MEMB      63              0.0000000000
      7590        63  POPE      O13            -6.0459347201      -35.5133455186       19.5158730509  MEMB      63              0.0000000000
      7591        63  POPE      O14            -4.1783488860      -35.3391062145       21.2374336833  MEMB      63              0.0000000000
      7592        63  POPE      O11            -4.0298090717      -36.9148182814       19.3730546045  MEMB      63              0.0000000000
      7593        63  POPE      O12            -3.8080909381      -34.6698028430       18.8445253588  MEMB      63              0.0000000000
      7594        63  POPE      C1             -2.5912050407      -37.0748087477       19.4617317121  MEMB      63              0.0000000000
      7595        63  POPE      HA             -2.2443499930      -38.1138866488       19.6521620535  MEMB      63              0.0000000000
      7596        63  POPE      HB             -2.1669024933      -36.7012106279       20.4012631910  MEMB      63              0.0000000000
      7597        63  POPE      C2             -1.8861880562      -36.9674773384       18.1101566480  MEMB      63              0.0000000000
      7598        63  POPE      HS             -1.7021721703      -35.8816745844       17.9942236609  MEMB      63              0.0000000000
      7599        63  POPE      O21            -2.7130883541      -37.5580977520       17.0725055047  MEMB      63              0.0000000000
      7600        63  POPE      C21            -2.9263822983      -36.8336470562       15.9681692879  MEMB      63              0.0000000000
      7601        63  POPE      O22            -2.5250443335      -35.6883716603       15.8027285061  MEMB      63              0.0000000000
      7602        63  POPE      C22            -3.7551467640      -37.6184383018       14.9637880571  MEMB      63              0.0000000000
      7603        63  POPE      H2R            -4.7471442551      -37.7986846423       15.4222434491  MEMB      63              0.0000000000
      7604        63  POPE      H2S            -3.2900341065      -38.6062327035       14.7531325837  MEMB      63              0.0000000000
      7605        63  POPE      C3             -0.5892115003      -37.8093012819       18.2882178461  MEMB      63              0.0000000000
      7606        63  POPE      HX             -0.8560691223      -38.8958224611       18.3061088442  MEMB      63              0.0000000000
      7607        63  POPE      HY             -0.1822664428      -37.6013715424       19.2976808827  MEMB      63              0.0000000000
      7608        63  POPE      O31             0.3982522520      -37.4878261550       17.3119525541  MEMB      63              0.0000000000
      7609        63  POPE      C31             0.1513076276      -38.1039341844       16.1592559489  MEMB      63              0.0000000000
      7610        63  POPE      O32            -0.5637218276      -39.0673739712       15.9981221768  MEMB      63              0.0000000000
      7611        63  POPE      C32             0.9551673297      -37.3658627882       15.1287567211  MEMB      63              0.0000000000
      7612        63  POPE      H2X             1.9921377563      -37.2162983233       15.5003673944  MEMB      63              0.0000000000
      7613        63  POPE      H2Y             0.4700507887      -36.3713773386       15.0348730662  MEMB      63              0.0000000000
      7614        63  POPE      C23            -3.9808905283      -36.7731781024       13.6980180035  MEMB      63              0.0000000000
      7615        63  POPE      H3R            -3.0505982826      -36.6019598170       13.1096038802  MEMB      63              0.0000000000
      7616        63  POPE      H3S            -4.4073851317      -35.7794510835       13.9594679213  MEMB      63              0.0000000000
      7617        63  POPE      C24            -4.9837981635      -37.4307777047       12.7884541982  MEMB      63              0.0000000000
      7618        63  POPE      H4R            -5.9703936568      -37.5620300072       13.2889355330  MEMB      63              0.0000000000
      7619        63  POPE      H4S            -4.5674782184      -38.4299524152       12.5366790747  MEMB      63              0.0000000000
      7620        63  POPE      C25            -5.2368515614      -36.5331454522       11.5991262723  MEMB      63              0.0000000000
      7621        63  POPE      H5R            -4.8053815224      -35.5231225140       11.7149220275  MEMB      63              0.0000000000
      7622        63  POPE      H5S            -6.3451590717      -36.4706112554       11.4579106258  MEMB      63              0.0000000000
      7623        63  POPE      C26            -4.6581153283      -37.0107183270       10.3089665943  MEMB      63              0.0000000000
      7624        63  POPE      H6R            -5.0646682859      -37.9991472420       10.3152739384  MEMB      63              0.0000000000
      7625        63  POPE      H6S            -3.5754614163      -37.2261157679       10.2640402735  MEMB      63              0.0000000000
      7626        63  POPE      C27            -5.2275936646      -36.0501645689        9.2581423144  MEMB      63              0.0000000000
      7627        63  POPE      H7R            -4.6910167614      -35.0866800107        9.3521282549  MEMB      63              0.0000000000
      7628        63  POPE      H7S            -6.3375528811      -35.9836147248        9.3089080628  MEMB      63              0.0000000000
      7629        63  POPE      C28            -4.8587636227      -36.3439897681        7.8670051604  MEMB      63              0.0000000000
      7630        63  POPE      H8R            -5.2577286993      -37.2885433316        7.5851954818  MEMB      63              0.0000000000
      7631        63  POPE      H8S            -3.7648644167      -36.4974352907        7.9944748014  MEMB      63              0.0000000000
      7632        63  POPE      C29            -5.2830683845      -35.5042661552        6.7163234491  MEMB      63              0.0000000000
      7633        63  POPE      H91            -6.3669875911      -35.5802593100        6.4910412128  MEMB      63              0.0000000000
      7634        63  POPE      C210           -4.4768386732      -35.1561148795        5.6965748078  MEMB      63              0.0000000000
      7635        63  POPE      H101           -4.9515492837      -34.5227449552        4.9489413172  MEMB      63              0.0000000000
      7636        63  POPE      C211           -3.0064669079      -35.4829405604        5.4456114895  MEMB      63              0.0000000000
      7637        63  POPE      H11R           -2.5003421166      -35.8403140502        6.3742623522  MEMB      63              0.0000000000
      7638        63  POPE      H11S           -2.5075810119      -34.5214064881        5.2166254412  MEMB      63              0.0000000000
      7639        63  POPE      C212           -2.5594221581      -36.2471561380        4.1434762414  MEMB      63              0.0000000000
      7640        63  POPE      H12R           -1.4786329479      -36.2393318914        4.1894997120  MEMB      63              0.0000000000
      7641        63  POPE      H12S           -3.0541439733      -35.8404792312        3.2404695550  MEMB      63              0.0000000000
      7642        63  POPE      C213           -2.3214842850      -37.7507437015        3.9838593651  MEMB      63              0.0000000000
      7643        63  POPE      H13R           -3.3102971545      -37.8152320306        3.8848611819  MEMB      63              0.0000000000
      7644        63  POPE      H13S           -2.0806934255      -38.2075759069        4.9262612068  MEMB      63              0.0000000000
      7645        63  POPE      C214           -2.4336989336      -38.5547460274        2.6904149917  MEMB      63              0.0000000000
      7646        63  POPE      H14R           -1.6189810656      -38.3641298269        2.1125268125  MEMB      63              0.0000000000
      7647        63  POPE      H14S           -3.1231835750      -37.9586924868        2.0488584956  MEMB      63              0.0000000000
      7648        63  POPE      C215           -2.6496933592      -40.1177909519        2.7375127710  MEMB      63              0.0000000000
      7649        63  POPE      H15R           -3.5148481718      -40.3463755210        3.3852249455  MEMB      63              0.0000000000
      7650        63  POPE      H15S           -1.9042917485      -40.7239856032        3.2255359243  MEMB      63              0.0000000000
      7651        63  POPE      C216           -3.0085421255      -40.5827429013        1.3104165407  MEMB      63              0.0000000000
      7652        63  POPE      H16R           -2.2497171883      -40.5307605316        0.5312993166  MEMB      63              0.0000000000
      7653        63  POPE      H16S           -3.4462458657      -39.7085893119        0.9577108514  MEMB      63              0.0000000000
      7654        63  POPE      C217           -3.9173607785      -41.7823487523        1.0106436356  MEMB      63              0.0000000000
      7655        63  POPE      H17R           -3.0482737187      -42.2884780812        1.4365583179  MEMB      63              0.0000000000
      7656        63  POPE      H17S           -3.9487880770      -42.1463952160       -0.0284363170  MEMB      63              0.0000000000
      7657        63  POPE      C218           -5.2283327004      -42.2993762903        1.6880906892  MEMB      63              0.0000000000
      7658        63  POPE      H18R           -5.0681028943      -42.0131540967        2.6750097270  MEMB      63              0.0000000000
      7659        63  POPE      H18S           -5.6316634995      -43.2994471594        1.4194523976  MEMB      63              0.0000000000
      7660        63  POPE      H18T           -6.1094767033      -41.9260619077        2.1029212508  MEMB      63              0.0000000000
      7661        63  POPE      C33             0.9644431820      -38.0971076698       13.7738273976  MEMB      63              0.0000000000
      7662        63  POPE      H3X             1.4340805381      -39.0936577276       13.8817009408  MEMB      63              0.0000000000
      7663        63  POPE      H3Y             1.5949335856      -37.4792238687       13.1022270309  MEMB      63              0.0000000000
      7664        63  POPE      C34            -0.4241083642      -38.3018491374       13.1399200570  MEMB      63              0.0000000000
      7665        63  POPE      H4X            -1.1109833332      -37.4919519867       13.4593018143  MEMB      63              0.0000000000
      7666        63  POPE      H4Y            -0.8358647884      -39.2568321750       13.5397386828  MEMB      63              0.0000000000
      7667        63  POPE      C35            -0.4554099650      -38.4990913158       11.6130919774  MEMB      63              0.0000000000
      7668        63  POPE      H5X            -1.5152671145      -38.6667965652       11.3199106128  MEMB      63              0.0000000000
      7669        63  POPE      H5Y             0.0983723026      -39.4353296099       11.3856191781  MEMB      63              0.0000000000
      7670        63  POPE      C36             0.0124264625      -37.2932180813       10.7915318445  MEMB      63              0.0000000000
      7671        63  POPE      H6X             1.1121856630      -37.1502925915       10.9326434094  MEMB      63              0.0000000000
      7672        63  POPE      H6Y            -0.5067431313      -36.4004466740       11.1881223392  MEMB      63              0.0000000000
      7673        63  POPE      C37            -0.3204048519      -37.3675920120        9.2833340383  MEMB      63              0.0000000000
      7674        63  POPE      H7X             0.0983531099      -36.4339284438        8.8199623844  MEMB      63              0.0000000000
      7675        63  POPE      H7Y            -1.3759140238      -37.4948680981        9.0052198304  MEMB      63              0.0000000000
      7676        63  POPE      C38             0.3633669877      -38.5434171855        8.6532972039  MEMB      63              0.0000000000
      7677        63  POPE      H8X             0.3565823254      -39.5362059490        9.1243719605  MEMB      63              0.0000000000
      7678        63  POPE      H8Y             1.2962658383      -38.1951022363        9.1125970358  MEMB      63              0.0000000000
      7679        63  POPE      C39             0.1535791978      -38.7638478778        7.1113124066  MEMB      63              0.0000000000
      7680        63  POPE      H9X            -0.8969676267      -38.9878549053        7.0843109499  MEMB      63              0.0000000000
      7681        63  POPE      H9Y             0.5969341589      -39.7387606551        6.8039058142  MEMB      63              0.0000000000
      7682        63  POPE      C310            0.3676348538      -37.6677653702        5.9874429227  MEMB      63              0.0000000000
      7683        63  POPE      H10X            0.0000971888      -36.6752867182        6.2675937654  MEMB      63              0.0000000000
      7684        63  POPE      H10Y           -0.0640079381      -38.1460310073        5.0714843264  MEMB      63              0.0000000000
      7685        63  POPE      C311            1.7158248509      -37.2450143106        5.3984047225  MEMB      63              0.0000000000
      7686        63  POPE      H11X            2.1633911297      -38.2386666478        5.2745466067  MEMB      63              0.0000000000
      7687        63  POPE      H11Y            2.3763161582      -36.6301580165        6.0280063484  MEMB      63              0.0000000000
      7688        63  POPE      C312            1.8248039618      -36.1441422832        4.3734132063  MEMB      63              0.0000000000
      7689        63  POPE      H12X            2.8874556553      -35.8594399576        4.1453431897  MEMB      63              0.0000000000
      7690        63  POPE      H12Y            1.5159161988      -35.2096927691        4.8781312208  MEMB      63              0.0000000000
      7691        63  POPE      C313            1.0061765846      -36.5571160326        3.1772815290  MEMB      63              0.0000000000
      7692        63  POPE      H13X            1.0435358238      -35.6556208486        2.5315217268  MEMB      63              0.0000000000
      7693        63  POPE      H13Y            0.0376305275      -36.8752691034        3.4995931495  MEMB      63              0.0000000000
      7694        63  POPE      C314            1.4610154226      -37.7814651243        2.4047402255  MEMB      63              0.0000000000
      7695        63  POPE      H14X            1.6976472200      -38.7521688847        2.8728882439  MEMB      63              0.0000000000
      7696        63  POPE      H14Y            2.3133570035      -37.1231060056        2.1773469948  MEMB      63              0.0000000000
      7697        63  POPE      C315            0.8445453315      -38.2928573363        1.1196624258  MEMB      63              0.0000000000
      7698        63  POPE      H15X            0.8046411832      -37.5466803832        0.3969519151  MEMB      63              0.0000000000
      7699        63  POPE      H15Y           -0.1918462188      -38.4036216983        1.2209915930  MEMB      63              0.0000000000
      7700        63  POPE      C316            1.4939388799      -39.4174424506        0.3068563937  MEMB      63              0.0000000000
      7701        63  POPE      H16X            0.8921173054      -39.5373418786       -0.6218732383  MEMB      63              0.0000000000
      7702        63  POPE      H16Y            1.5116464723      -40.3415988582        0.8839497550  MEMB      63              0.0000000000
      7703        63  POPE      H16Z            2.5288184624      -39.1818308377       -0.0175878481  MEMB      63              0.0000000000
      7704        64  PVCL2     C3             22.9816440145      -27.8662848911       18.1952169179  MEMB      64              0.0000000000
      7705        64  PVCL2     HG31           23.7112235483      -27.0304365224       18.1371935850  MEMB      64              0.0000000000
      7706        64  PVCL2     HG32           22.7342795235      -28.1317304924       17.1427489301  MEMB      64              0.0000000000
      7707        64  PVCL2     P3             20.6466980553      -26.6809205943       18.2315994510  MEMB      64              0.0000000000
      7708        64  PVCL2     OP33           19.3546755395      -26.8964088174       18.9500423506  MEMB      64              0.0000000000
      7709        64  PVCL2     OP34           20.6763829631      -26.8940773643       16.7707507642  MEMB      64              0.0000000000
      7710        64  PVCL2     OP31           21.8229944802      -27.4665732148       18.9385741068  MEMB      64              0.0000000000
      7711        64  PVCL2     OP32           21.1327831315      -25.2185264885       18.5079300231  MEMB      64              0.0000000000
      7712        64  PVCL2     C31            21.2441614548      -24.7651069607       19.8567803155  MEMB      64              0.0000000000
      7713        64  PVCL2     H31J           20.2076129676      -24.6881716491       20.2562333341  MEMB      64              0.0000000000
      7714        64  PVCL2     H31K           21.8225670014      -25.4406701092       20.5122827526  MEMB      64              0.0000000000
      7715        64  PVCL2     C2             23.6348944261      -29.1355127744       18.8019615133  MEMB      64              0.0000000000
      7716        64  PVCL2     HG22           24.4044879951      -29.4881933184       18.0871332685  MEMB      64              0.0000000000
      7717        64  PVCL2     OG12           24.3478627001      -28.7942253954       19.9810538336  MEMB      64              0.0000000000
      7718        64  PVCL2     HO12           23.9921353991      -27.9067139102       20.1388682632  MEMB      64              0.0000000000
      7719        64  PVCL2     C1             22.6375454986      -30.3138929648       19.0035620471  MEMB      64              0.0000000000
      7720        64  PVCL2     HG11           23.2365366814      -31.2342581994       19.1711507893  MEMB      64              0.0000000000
      7721        64  PVCL2     HG12           22.0699448304      -30.4299819004       18.0495412667  MEMB      64              0.0000000000
      7722        64  PVCL2     P1             20.7079271618      -31.2313973485       20.4651914636  MEMB      64              0.0000000000
      7723        64  PVCL2     OP13           21.5750518169      -32.3053856548       21.0388719667  MEMB      64              0.0000000000
      7724        64  PVCL2     OP14           19.6500709410      -30.6506765825       21.3355600431  MEMB      64              0.0000000000
      7725        64  PVCL2     OP11           21.7245602595      -30.0916173443       20.0839550464  MEMB      64              0.0000000000
      7726        64  PVCL2     OP12           20.0894831762      -31.6570140889       19.0639608180  MEMB      64              0.0000000000
      7727        64  PVCL2     C11            19.0130059231      -30.9331152690       18.4541227550  MEMB      64              0.0000000000
      7728        64  PVCL2     H11J           19.1656853435      -29.8243683158       18.4682463399  MEMB      64              0.0000000000
      7729        64  PVCL2     H11K           18.0730765630      -31.1551039328       18.9992931450  MEMB      64              0.0000000000
      7730        64  PVCL2     C12            18.9078068151      -31.3104688933       16.9526220564  MEMB      64              0.0000000000
      7731        64  PVCL2     H12J           19.1682297739      -32.3953619365       16.8873480415  MEMB      64              0.0000000000
      7732        64  PVCL2     O12            19.8982239687      -30.4999698805       16.3002871195  MEMB      64              0.0000000000
      7733        64  PVCL2     CA1            20.1553216221      -30.6183444479       15.0250245980  MEMB      64              0.0000000000
      7734        64  PVCL2     OA1            19.6106638506      -31.3407857055       14.2230326621  MEMB      64              0.0000000000
      7735        64  PVCL2     CA2            21.1959870108      -29.5685116522       14.6564716146  MEMB      64              0.0000000000
      7736        64  PVCL2     H2A            21.9970712941      -29.5549534945       15.4184684768  MEMB      64              0.0000000000
      7737        64  PVCL2     H2B            20.6479132671      -28.5992280887       14.6631801673  MEMB      64              0.0000000000
      7738        64  PVCL2     C13            17.4731313321      -31.0825330572       16.3814169240  MEMB      64              0.0000000000
      7739        64  PVCL2     H13J           16.7656429174      -31.5608749627       17.1002023029  MEMB      64              0.0000000000
      7740        64  PVCL2     H13K           17.3205297095      -31.5977100656       15.4057630057  MEMB      64              0.0000000000
      7741        64  PVCL2     O13            17.1530038846      -29.6789836124       16.3385408958  MEMB      64              0.0000000000
      7742        64  PVCL2     CB1            17.2179503283      -29.0506607168       15.1814580681  MEMB      64              0.0000000000
      7743        64  PVCL2     OB1            17.5673576061      -29.4963664868       14.1075278825  MEMB      64              0.0000000000
      7744        64  PVCL2     CB2            16.6445293520      -27.6575398950       15.4046565705  MEMB      64              0.0000000000
      7745        64  PVCL2     H2D            17.0276247672      -27.2729467521       16.3675064625  MEMB      64              0.0000000000
      7746        64  PVCL2     H2E            15.5353848651      -27.7599568810       15.4542057882  MEMB      64              0.0000000000
      7747        64  PVCL2     C32            21.8319269027      -23.3520395405       19.8581676682  MEMB      64              0.0000000000
      7748        64  PVCL2     H32J           21.7532877543      -22.8804683119       20.8671824357  MEMB      64              0.0000000000
      7749        64  PVCL2     O32            20.9812021657      -22.7143933143       18.9199453061  MEMB      64              0.0000000000
      7750        64  PVCL2     CC1            19.7734417053      -22.3902279958       19.3468792741  MEMB      64              0.0000000000
      7751        64  PVCL2     OC1            19.3078147667      -22.5144413738       20.4756016654  MEMB      64              0.0000000000
      7752        64  PVCL2     CC2            19.0970566467      -21.6406708545       18.2067166157  MEMB      64              0.0000000000
      7753        64  PVCL2     H2R            19.9335727646      -21.2850561935       17.5468179041  MEMB      64              0.0000000000
      7754        64  PVCL2     H2S            18.4318736681      -20.8150148664       18.5626821107  MEMB      64              0.0000000000
      7755        64  PVCL2     C33            23.3488944268      -23.2072314210       19.4424515718  MEMB      64              0.0000000000
      7756        64  PVCL2     H33J           23.6391922413      -22.1334190688       19.4962086183  MEMB      64              0.0000000000
      7757        64  PVCL2     H33K           23.9756896882      -23.6944404859       20.2238059444  MEMB      64              0.0000000000
      7758        64  PVCL2     O33            23.6328810279      -23.7938111354       18.1519635458  MEMB      64              0.0000000000
      7759        64  PVCL2     CD1            23.9258380581      -22.9806687335       17.1489590795  MEMB      64              0.0000000000
      7760        64  PVCL2     OD1            24.2214574926      -21.8004124319       17.2368782867  MEMB      64              0.0000000000
      7761        64  PVCL2     CD2            23.7552609171      -23.7436368296       15.8228154606  MEMB      64              0.0000000000
      7762        64  PVCL2     H2X            24.1835879638      -24.7575134698       15.9522368454  MEMB      64              0.0000000000
      7763        64  PVCL2     H2Y            24.3295602068      -23.2275614043       15.0285878624  MEMB      64              0.0000000000
      7764        64  PVCL2     CA3            21.7614458741      -29.6770428487       13.2311043214  MEMB      64              0.0000000000
      7765        64  PVCL2     H3A            21.9826648656      -28.6217068192       12.9497368778  MEMB      64              0.0000000000
      7766        64  PVCL2     H3B            20.9701395988      -30.0217812967       12.5321432641  MEMB      64              0.0000000000
      7767        64  PVCL2     CA4            23.0689390427      -30.4805242303       13.1370778537  MEMB      64              0.0000000000
      7768        64  PVCL2     H4A            22.9219898232      -31.5312552441       13.4705980158  MEMB      64              0.0000000000
      7769        64  PVCL2     H4B            23.8084886683      -29.9925290431       13.8186465983  MEMB      64              0.0000000000
      7770        64  PVCL2     CA5            23.6771663984      -30.5419651836       11.7260796774  MEMB      64              0.0000000000
      7771        64  PVCL2     H5A            22.9865187148      -31.0571105217       11.0267017436  MEMB      64              0.0000000000
      7772        64  PVCL2     H5B            24.6013214417      -31.1598174699       11.7780713616  MEMB      64              0.0000000000
      7773        64  PVCL2     CA6            24.0039306363      -29.1432258468       11.2060914350  MEMB      64              0.0000000000
      7774        64  PVCL2     H6A            24.5886768524      -28.6287691123       12.0052711555  MEMB      64              0.0000000000
      7775        64  PVCL2     H6B            23.0523728147      -28.5885977330       11.0739320803  MEMB      64              0.0000000000
      7776        64  PVCL2     CA7            24.7806978365      -29.0796578008        9.8803485583  MEMB      64              0.0000000000
      7777        64  PVCL2     H7A            25.7892172036      -29.5186601849       10.0238213478  MEMB      64              0.0000000000
      7778        64  PVCL2     H7B            24.9190390370      -27.9923850114        9.6673576085  MEMB      64              0.0000000000
      7779        64  PVCL2     CA8            24.0731035888      -29.6780439711        8.6451251060  MEMB      64              0.0000000000
      7780        64  PVCL2     H8A            23.9609156531      -30.7805908218        8.7046107440  MEMB      64              0.0000000000
      7781        64  PVCL2     H8B            24.7289889581      -29.4983061958        7.7655421775  MEMB      64              0.0000000000
      7782        64  PVCL2     CA9            22.7015961508      -29.0113560957        8.4105118207  MEMB      64              0.0000000000
      7783        64  PVCL2     H9A            22.8389383739      -27.9260040696        8.6134706036  MEMB      64              0.0000000000
      7784        64  PVCL2     H9B            21.9805183823      -29.4066955651        9.1613735294  MEMB      64              0.0000000000
      7785        64  PVCL2     CA10           22.0921126484      -29.2673574403        7.0176734454  MEMB      64              0.0000000000
      7786        64  PVCL2     H10A           21.0189944272      -28.9752135340        6.9762910562  MEMB      64              0.0000000000
      7787        64  PVCL2     H10B           22.1133302850      -30.3688285787        6.8826517502  MEMB      64              0.0000000000
      7788        64  PVCL2     CA11           22.9069196433      -28.6221286277        5.9293959757  MEMB      64              0.0000000000
      7789        64  PVCL2     H11A           23.9736335762      -28.8787145994        5.9762980900  MEMB      64              0.0000000000
      7790        64  PVCL2     CA12           22.5049137415      -27.8523523972        4.9042928267  MEMB      64              0.0000000000
      7791        64  PVCL2     H12A           23.2826199244      -27.5348682707        4.1957651294  MEMB      64              0.0000000000
      7792        64  PVCL2     CA13           21.1066886424      -27.4121211860        4.5464200084  MEMB      64              0.0000000000
      7793        64  PVCL2     H13A           21.0829058061      -26.3720468359        4.1432924876  MEMB      64              0.0000000000
      7794        64  PVCL2     H13B           20.4430883909      -27.3824954528        5.4393692402  MEMB      64              0.0000000000
      7795        64  PVCL2     CA14           20.4657440760      -28.3776376004        3.5287478866  MEMB      64              0.0000000000
      7796        64  PVCL2     H14A           19.4651697790      -27.9377838242        3.3021994904  MEMB      64              0.0000000000
      7797        64  PVCL2     H14B           20.2897739837      -29.3658565983        4.0079611221  MEMB      64              0.0000000000
      7798        64  PVCL2     CA15           21.2317845132      -28.6081540753        2.2062986545  MEMB      64              0.0000000000
      7799        64  PVCL2     H15A           21.8076326864      -27.7053854971        1.9121620836  MEMB      64              0.0000000000
      7800        64  PVCL2     H15B           20.4647841068      -28.7846747903        1.4161473260  MEMB      64              0.0000000000
      7801        64  PVCL2     CA16           22.1610877134      -29.8374898258        2.1751133661  MEMB      64              0.0000000000
      7802        64  PVCL2     H16A           21.6285139211      -30.7547747938        2.5149643081  MEMB      64              0.0000000000
      7803        64  PVCL2     H16B           23.0377589989      -29.6901057326        2.8468447257  MEMB      64              0.0000000000
      7804        64  PVCL2     CA17           22.6427402029      -30.1407968656        0.7540854556  MEMB      64              0.0000000000
      7805        64  PVCL2     H17A           23.3105250753      -29.3201966198        0.3936135498  MEMB      64              0.0000000000
      7806        64  PVCL2     H17B           21.7784058698      -30.2956534837        0.0885734706  MEMB      64              0.0000000000
      7807        64  PVCL2     CA18           23.4602211962      -31.3869558289        0.7061509079  MEMB      64              0.0000000000
      7808        64  PVCL2     H18A           23.9076046973      -31.5979690347       -0.2783842746  MEMB      64              0.0000000000
      7809        64  PVCL2     H18B           22.9515111741      -32.3061494589        1.0764475627  MEMB      64              0.0000000000
      7810        64  PVCL2     H18C           24.2740439699      -31.0812725748        1.3822516083  MEMB      64              0.0000000000
      7811        64  PVCL2     CB3            17.0202368128      -26.6800766075       14.2936340462  MEMB      64              0.0000000000
      7812        64  PVCL2     H3D            17.9437400267      -26.9584044578       13.7514128566  MEMB      64              0.0000000000
      7813        64  PVCL2     H3E            17.2259661870      -25.6668135517       14.7343736163  MEMB      64              0.0000000000
      7814        64  PVCL2     CB4            15.8523082351      -26.5603077053       13.3185604760  MEMB      64              0.0000000000
      7815        64  PVCL2     H4D            16.2820419465      -25.8662642058       12.6064215364  MEMB      64              0.0000000000
      7816        64  PVCL2     H4E            15.0014010296      -26.1454438717       13.9039716342  MEMB      64              0.0000000000
      7817        64  PVCL2     CB5            15.3769216117      -27.7585775335       12.4947562598  MEMB      64              0.0000000000
      7818        64  PVCL2     H5D            14.5624507962      -28.2104774848       13.0749070011  MEMB      64              0.0000000000
      7819        64  PVCL2     H5E            16.3028301300      -28.3688447773       12.4282508733  MEMB      64              0.0000000000
      7820        64  PVCL2     CB6            14.8999811216      -27.6375329743       11.0193338031  MEMB      64              0.0000000000
      7821        64  PVCL2     H6D            14.9240635394      -28.5694862422       10.4605253259  MEMB      64              0.0000000000
      7822        64  PVCL2     H6E            15.7897451933      -27.1243954911       10.5685249940  MEMB      64              0.0000000000
      7823        64  PVCL2     CB7            13.4519707185      -27.0794357353       10.6893089111  MEMB      64              0.0000000000
      7824        64  PVCL2     H7D            13.2690248617      -26.2924331006       11.4970749676  MEMB      64              0.0000000000
      7825        64  PVCL2     H7E            12.5116373537      -27.4389618899       11.0467349309  MEMB      64              0.0000000000
      7826        64  PVCL2     CB8            13.3273929883      -26.5706444747        9.1711056206  MEMB      64              0.0000000000
      7827        64  PVCL2     H8D            14.0914180807      -25.9199982314        8.6788371246  MEMB      64              0.0000000000
      7828        64  PVCL2     H8E            12.4678871141      -25.9363231080        9.0375978748  MEMB      64              0.0000000000
      7829        64  PVCL2     CB9            13.4886583339      -27.3969514843        8.0207793426  MEMB      64              0.0000000000
      7830        64  PVCL2     H9D            12.5955320529      -27.9297182107        8.3679634549  MEMB      64              0.0000000000
      7831        64  PVCL2     H9E            14.4907039326      -27.8622726642        8.1483541877  MEMB      64              0.0000000000
      7832        64  PVCL2     CB10           13.3215177932      -26.5081756141        6.7632633089  MEMB      64              0.0000000000
      7833        64  PVCL2     H10D           13.3176694641      -27.2209340199        5.9055544102  MEMB      64              0.0000000000
      7834        64  PVCL2     H10E           14.2323086303      -25.9735933657        6.5332876269  MEMB      64              0.0000000000
      7835        64  PVCL2     CB11           12.0298863127      -25.6434918438        6.7758728827  MEMB      64              0.0000000000
      7836        64  PVCL2     H11D           11.8332171563      -24.6681249311        6.2734789404  MEMB      64              0.0000000000
      7837        64  PVCL2     H11E           11.5533322835      -25.1236282186        7.6467995044  MEMB      64              0.0000000000
      7838        64  PVCL2     CB12           11.3698019176      -26.8021787641        6.4404963888  MEMB      64              0.0000000000
      7839        64  PVCL2     H12D           10.8020893482      -26.0045026908        5.8856160633  MEMB      64              0.0000000000
      7840        64  PVCL2     H12E           11.0133425670      -27.0615658325        7.4863220288  MEMB      64              0.0000000000
      7841        64  PVCL2     CB13           10.7425414232      -27.3800965435        5.2050216900  MEMB      64              0.0000000000
      7842        64  PVCL2     H13D            9.6428993528      -27.3844056566        5.0950340459  MEMB      64              0.0000000000
      7843        64  PVCL2     H13E           11.1504792081      -28.3576609985        5.2190805055  MEMB      64              0.0000000000
      7844        64  PVCL2     CB14           11.1016802746      -26.9880329086        3.9258482895  MEMB      64              0.0000000000
      7845        64  PVCL2     H14D           12.1809905445      -26.9596141983        4.1404940915  MEMB      64              0.0000000000
      7846        64  PVCL2     H14E           10.7088112058      -26.0064037768        3.6940022120  MEMB      64              0.0000000000
      7847        64  PVCL2     CB15           11.2040745652      -28.0609401010        2.9182554151  MEMB      64              0.0000000000
      7848        64  PVCL2     H15D           11.9077624270      -28.6571723112        3.4250248930  MEMB      64              0.0000000000
      7849        64  PVCL2     H15E           11.6693022727      -27.6792350517        1.9913149854  MEMB      64              0.0000000000
      7850        64  PVCL2     CB16           10.1374694137      -29.0761744787        2.7767000843  MEMB      64              0.0000000000
      7851        64  PVCL2     H16D           10.2752069743      -29.9390377159        2.1372019309  MEMB      64              0.0000000000
      7852        64  PVCL2     H16E            9.7004577866      -28.6491249612        1.9373641732  MEMB      64              0.0000000000
      7853        64  PVCL2     H16F            9.3668396283      -29.0992689369        3.5854716280  MEMB      64              0.0000000000
      7854        64  PVCL2     CC3            18.4792161689      -22.4347710921       17.1942875584  MEMB      64              0.0000000000
      7855        64  PVCL2     H3R            17.7659819311      -23.0206418245       17.7940639946  MEMB      64              0.0000000000
      7856        64  PVCL2     H3S            19.3321751686      -22.9685837281       16.6892774926  MEMB      64              0.0000000000
      7857        64  PVCL2     CC4            17.6585705561      -21.6337833652       16.2425212202  MEMB      64              0.0000000000
      7858        64  PVCL2     H4R            17.0706302684      -20.7386093294       16.5538060154  MEMB      64              0.0000000000
      7859        64  PVCL2     H4S            17.1287732754      -22.5132462004       15.9454954162  MEMB      64              0.0000000000
      7860        64  PVCL2     CC5            18.3018740927      -21.3591119673       14.9841866038  MEMB      64              0.0000000000
      7861        64  PVCL2     H5R            19.1747336113      -22.0136911308       14.7477291251  MEMB      64              0.0000000000
      7862        64  PVCL2     H5S            19.0583158198      -20.7629031573       15.5297975230  MEMB      64              0.0000000000
      7863        64  PVCL2     CC6            17.2703234769      -20.8459958675       13.7656940695  MEMB      64              0.0000000000
      7864        64  PVCL2     H6R            17.6094252522      -20.1385947330       12.9003022096  MEMB      64              0.0000000000
      7865        64  PVCL2     H6S            16.3165781362      -20.2968845283       13.8306007320  MEMB      64              0.0000000000
      7866        64  PVCL2     CC7            17.2064662984      -21.7218820505       12.9067991732  MEMB      64              0.0000000000
      7867        64  PVCL2     H7R            17.1366962192      -22.7049273406       13.3570199526  MEMB      64              0.0000000000
      7868        64  PVCL2     H7S            18.1613491468      -22.1525591097       13.1453230551  MEMB      64              0.0000000000
      7869        64  PVCL2     CC8            16.6157430728      -21.1279271980       11.5366126081  MEMB      64              0.0000000000
      7870        64  PVCL2     H8R            16.9710330478      -20.2968201588       10.9248293781  MEMB      64              0.0000000000
      7871        64  PVCL2     H8S            15.5673700134      -20.8366148752       11.8134780525  MEMB      64              0.0000000000
      7872        64  PVCL2     CC9            16.7173434920      -22.3179328644       10.8215133936  MEMB      64              0.0000000000
      7873        64  PVCL2     H9R            15.6656161463      -22.1380170380       10.4381785528  MEMB      64              0.0000000000
      7874        64  PVCL2     H9S            16.9522216182      -23.1125924879       11.6537795884  MEMB      64              0.0000000000
      7875        64  PVCL2     CC10           16.9286171928      -23.0540400174        9.5170493362  MEMB      64              0.0000000000
      7876        64  PVCL2     H10R           17.2991677863      -24.1326856100        9.5202998703  MEMB      64              0.0000000000
      7877        64  PVCL2     H10S           17.6922320172      -22.9539242654       10.1875724392  MEMB      64              0.0000000000
      7878        64  PVCL2     CC11           16.6489737244      -22.2482176325        8.3092746689  MEMB      64              0.0000000000
      7879        64  PVCL2     H11R           16.8905164249      -21.1912846417        8.3706504818  MEMB      64              0.0000000000
      7880        64  PVCL2     CC12           16.6596341489      -22.8278411581        7.1579156223  MEMB      64              0.0000000000
      7881        64  PVCL2     H12R           17.0450775984      -22.1506582849        6.4143498650  MEMB      64              0.0000000000
      7882        64  PVCL2     CC13           16.8960720135      -24.2923994050        6.9846666193  MEMB      64              0.0000000000
      7883        64  PVCL2     H13R           15.9440561533      -24.3828771360        7.3017095653  MEMB      64              0.0000000000
      7884        64  PVCL2     H13S           17.1934322833      -24.9959411865        7.7896886987  MEMB      64              0.0000000000
      7885        64  PVCL2     CC14           16.7313714424      -24.9279112810        5.6118420126  MEMB      64              0.0000000000
      7886        64  PVCL2     H14R           16.1309709750      -25.8406196659        5.6510112688  MEMB      64              0.0000000000
      7887        64  PVCL2     H14S           17.6421098669      -25.4781485227        5.3613173772  MEMB      64              0.0000000000
      7888        64  PVCL2     CC15           16.5353429654      -23.8872315646        4.4815261718  MEMB      64              0.0000000000
      7889        64  PVCL2     H15R           16.6879782154      -22.7932346320        4.5759260961  MEMB      64              0.0000000000
      7890        64  PVCL2     H15S           15.5752474134      -23.6672878272        4.5457304463  MEMB      64              0.0000000000
      7891        64  PVCL2     CC16           16.5601273196      -24.4824657741        3.1158635985  MEMB      64              0.0000000000
      7892        64  PVCL2     H16R           16.2045385230      -23.7374280692        2.3698834124  MEMB      64              0.0000000000
      7893        64  PVCL2     H16S           15.9412925859      -25.4147608589        3.1109591845  MEMB      64              0.0000000000
      7894        64  PVCL2     CC17           17.9346619450      -24.6880382695        2.6610763662  MEMB      64              0.0000000000
      7895        64  PVCL2     H17R           18.4082931521      -25.3808443420        3.3823848157  MEMB      64              0.0000000000
      7896        64  PVCL2     H17S           18.4031882928      -23.6799338709        2.7027948715  MEMB      64              0.0000000000
      7897        64  PVCL2     CC18           17.9608049871      -25.1776898595        1.2372863015  MEMB      64              0.0000000000
      7898        64  PVCL2     H18R           17.3198637216      -26.0803814216        1.1149688650  MEMB      64              0.0000000000
      7899        64  PVCL2     H18S           19.0156525467      -25.3941277700        0.9911563843  MEMB      64              0.0000000000
      7900        64  PVCL2     H18T           17.6011029745      -24.3726411943        0.5579509894  MEMB      64              0.0000000000
      7901        64  PVCL2     CD3            22.2543193511      -23.7813480133       15.4420569133  MEMB      64              0.0000000000
      7902        64  PVCL2     H3X            21.9141143383      -22.7396869772       15.2327329851  MEMB      64              0.0000000000
      7903        64  PVCL2     H3Y            21.6902345188      -24.1746250520       16.3190123429  MEMB      64              0.0000000000
      7904        64  PVCL2     CD4            21.9243102769      -24.6891573610       14.2563624130  MEMB      64              0.0000000000
      7905        64  PVCL2     H4X            22.1130645767      -25.7558498423       14.5044617608  MEMB      64              0.0000000000
      7906        64  PVCL2     H4Y            22.5805150155      -24.3905589620       13.4073139485  MEMB      64              0.0000000000
      7907        64  PVCL2     CD5            20.4682242314      -24.6486912482       13.7928295371  MEMB      64              0.0000000000
      7908        64  PVCL2     H5X            20.3122369642      -23.6266788576       13.4677859795  MEMB      64              0.0000000000
      7909        64  PVCL2     H5Y            19.6822408023      -24.6733226456       14.5715668016  MEMB      64              0.0000000000
      7910        64  PVCL2     CD6            20.2081252800      -25.7918253913       12.7913678103  MEMB      64              0.0000000000
      7911        64  PVCL2     H6X            19.1338691655      -25.7464262905       12.5195916165  MEMB      64              0.0000000000
      7912        64  PVCL2     H6Y            20.4156702693      -26.7571268020       13.3105772165  MEMB      64              0.0000000000
      7913        64  PVCL2     CD7            21.0729839476      -25.7980787137       11.5200559926  MEMB      64              0.0000000000
      7914        64  PVCL2     H7X            22.1567456698      -25.7251277742       11.7245500070  MEMB      64              0.0000000000
      7915        64  PVCL2     H7Y            20.8839809567      -24.8846929431       11.0164474518  MEMB      64              0.0000000000
      7916        64  PVCL2     CD8            20.7525245919      -26.8903468316       10.4915671620  MEMB      64              0.0000000000
      7917        64  PVCL2     H8X            20.9782819000      -27.8538898911       10.9941506598  MEMB      64              0.0000000000
      7918        64  PVCL2     H8Y            21.4446886720      -26.7750252555        9.6261545700  MEMB      64              0.0000000000
      7919        64  PVCL2     CD9            19.2880239854      -26.9227578873        9.9947565239  MEMB      64              0.0000000000
      7920        64  PVCL2     H9X            18.9555147458      -25.9674592823        9.5415660433  MEMB      64              0.0000000000
      7921        64  PVCL2     H9Y            18.6447160228      -27.0950834748       10.8822623255  MEMB      64              0.0000000000
      7922        64  PVCL2     CD10           19.0318735516      -28.0647737228        8.9984153791  MEMB      64              0.0000000000
      7923        64  PVCL2     H10X           19.7851779436      -28.8557457527        9.2214864439  MEMB      64              0.0000000000
      7924        64  PVCL2     H10Y           19.1571171832      -27.7249491720        7.9466366074  MEMB      64              0.0000000000
      7925        64  PVCL2     CD11           17.6381512912      -28.6939752785        9.0933425711  MEMB      64              0.0000000000
      7926        64  PVCL2     H11X           16.9008080675      -28.0124471761        8.6180741090  MEMB      64              0.0000000000
      7927        64  PVCL2     H11Y           17.3557707879      -28.8236372420       10.1664886599  MEMB      64              0.0000000000
      7928        64  PVCL2     CD12           17.5869437354      -30.1045351991        8.4810336321  MEMB      64              0.0000000000
      7929        64  PVCL2     H12X           16.5705613165      -30.5173536879        8.6689527737  MEMB      64              0.0000000000
      7930        64  PVCL2     H12Y           18.3210781733      -30.7135623048        9.0614275193  MEMB      64              0.0000000000
      7931        64  PVCL2     CD13           17.8796586630      -30.2222002071        6.9743448340  MEMB      64              0.0000000000
      7932        64  PVCL2     H13X           17.9246183021      -31.2978186582        6.6840741484  MEMB      64              0.0000000000
      7933        64  PVCL2     H13Y           18.8599190702      -29.7777911803        6.6988225557  MEMB      64              0.0000000000
      7934        64  PVCL2     CD14           16.8003000930      -29.6059149381        6.0821736235  MEMB      64              0.0000000000
      7935        64  PVCL2     H14X           16.7818031479      -28.5064303074        6.2616192095  MEMB      64              0.0000000000
      7936        64  PVCL2     H14Y           15.8239423358      -30.0587035625        6.3621454120  MEMB      64              0.0000000000
      7937        64  PVCL2     CD15           17.1379486472      -29.8739989193        4.6124379396  MEMB      64              0.0000000000
      7938        64  PVCL2     H15X           17.1107722058      -30.9632065473        4.3715798197  MEMB      64              0.0000000000
      7939        64  PVCL2     H15Y           18.1964737853      -29.5472810511        4.5158637478  MEMB      64              0.0000000000
      7940        64  PVCL2     CD16           16.3441607695      -29.0807071805        3.5774050226  MEMB      64              0.0000000000
      7941        64  PVCL2     H16X           16.6098626589      -28.0060187369        3.6529813615  MEMB      64              0.0000000000
      7942        64  PVCL2     H16Y           15.2461579822      -29.1661016513        3.7044863980  MEMB      64              0.0000000000
      7943        64  PVCL2     H16Z           16.6286121704      -29.4489033614        2.5660227582  MEMB      64              0.0000000000
      7944        65  POPE      N              32.1772581400        5.4769186650       18.8045566138  MEMB      65              0.0000000000
      7945        65  POPE      HN1            32.7137152374        5.1568584455       19.6324678097  MEMB      65              0.0000000000
      7946        65  POPE      HN2            31.2581968224        5.8342210745       19.1612880208  MEMB      65              0.0000000000
      7947        65  POPE      HN3            31.9890612823        4.7242868344       18.1190828923  MEMB      65              0.0000000000
      7948        65  POPE      C12            32.9759900764        6.5632958711       18.1353099598  MEMB      65              0.0000000000
      7949        65  POPE      H12A           32.3170214218        7.0971214807       17.4186610391  MEMB      65              0.0000000000
      7950        65  POPE      H12B           33.7869178954        6.0471697479       17.5742069437  MEMB      65              0.0000000000
      7951        65  POPE      C11            33.5553431709        7.5511932360       19.1634215256  MEMB      65              0.0000000000
      7952        65  POPE      H11A           34.2109055256        7.0424064438       19.9043916684  MEMB      65              0.0000000000
      7953        65  POPE      H11B           32.7885579936        8.0811787410       19.7240052135  MEMB      65              0.0000000000
      7954        65  POPE      P              35.3074566612        9.5049787446       19.2214345000  MEMB      65              0.0000000000
      7955        65  POPE      O13            34.9969650947        9.4554680833       20.6744345431  MEMB      65              0.0000000000
      7956        65  POPE      O14            35.3795999038       10.8159212048       18.5481563400  MEMB      65              0.0000000000
      7957        65  POPE      O11            36.5988411449        8.6506437217       18.9255033782  MEMB      65              0.0000000000
      7958        65  POPE      O12            34.2117221876        8.5999430745       18.4952567465  MEMB      65              0.0000000000
      7959        65  POPE      C1             36.6941867779        7.5617316759       17.9909482539  MEMB      65              0.0000000000
      7960        65  POPE      HA             35.7175032748        7.1115269905       17.7358093193  MEMB      65              0.0000000000
      7961        65  POPE      HB             37.2791725093        6.7435885646       18.4636858899  MEMB      65              0.0000000000
      7962        65  POPE      C2             37.3467235048        7.8893466478       16.6009462726  MEMB      65              0.0000000000
      7963        65  POPE      HS             38.3799173366        8.2883533476       16.7723328037  MEMB      65              0.0000000000
      7964        65  POPE      O21            36.5398656565        8.8415600549       15.8852564201  MEMB      65              0.0000000000
      7965        65  POPE      C21            37.1015463994        9.3691611284       14.8099993484  MEMB      65              0.0000000000
      7966        65  POPE      O22            38.1954896158        9.0743485878       14.3605706809  MEMB      65              0.0000000000
      7967        65  POPE      C22            36.2729105987       10.5342623429       14.2775921507  MEMB      65              0.0000000000
      7968        65  POPE      H2R            36.6158508679       11.4192668325       14.8623961902  MEMB      65              0.0000000000
      7969        65  POPE      H2S            35.1911480083       10.4081706665       14.4636465731  MEMB      65              0.0000000000
      7970        65  POPE      C3             37.4609409256        6.5838019367       15.7662877430  MEMB      65              0.0000000000
      7971        65  POPE      HX             38.2228761412        5.9680732581       16.2359180144  MEMB      65              0.0000000000
      7972        65  POPE      HY             37.8446901249        6.7919188457       14.7483111947  MEMB      65              0.0000000000
      7973        65  POPE      O31            36.2542453209        5.8008373394       15.7608104332  MEMB      65              0.0000000000
      7974        65  POPE      C31            35.5675982313        5.8578173375       14.6579284449  MEMB      65              0.0000000000
      7975        65  POPE      O32            35.6838700458        6.6499556750       13.7373439477  MEMB      65              0.0000000000
      7976        65  POPE      C32            34.5785758172        4.7408051486       14.7242120858  MEMB      65              0.0000000000
      7977        65  POPE      H2X            33.7145168918        5.0184149528       15.3573745819  MEMB      65              0.0000000000
      7978        65  POPE      H2Y            35.0421355958        3.7816820805       15.0560039928  MEMB      65              0.0000000000
      7979        65  POPE      C23            36.5855325500       10.8673300333       12.7964840354  MEMB      65              0.0000000000
      7980        65  POPE      H3R            37.6644874646       11.1299754872       12.7251924573  MEMB      65              0.0000000000
      7981        65  POPE      H3S            36.0186250851       11.8020337032       12.5874965396  MEMB      65              0.0000000000
      7982        65  POPE      C24            36.1715475626        9.8320036271       11.7249738022  MEMB      65              0.0000000000
      7983        65  POPE      H4R            35.1333807174        9.4910555002       11.9393827369  MEMB      65              0.0000000000
      7984        65  POPE      H4S            36.8085650463        8.9178985384       11.7129508989  MEMB      65              0.0000000000
      7985        65  POPE      C25            36.2528654533       10.4194372066       10.2998811071  MEMB      65              0.0000000000
      7986        65  POPE      H5R            37.2944300501       10.7619278012       10.1051398976  MEMB      65              0.0000000000
      7987        65  POPE      H5S            35.5655685098       11.2919240552       10.2403171352  MEMB      65              0.0000000000
      7988        65  POPE      C26            35.8421490432        9.4127502090        9.2187198198  MEMB      65              0.0000000000
      7989        65  POPE      H6R            34.8542565228        9.0103878970        9.5263687008  MEMB      65              0.0000000000
      7990        65  POPE      H6S            36.5603282035        8.5632010694        9.1684168674  MEMB      65              0.0000000000
      7991        65  POPE      C27            35.7022332059       10.0123677305        7.8146445392  MEMB      65              0.0000000000
      7992        65  POPE      H7R            36.7034760184       10.3939013474        7.5019861656  MEMB      65              0.0000000000
      7993        65  POPE      H7S            34.9997354812       10.8736970627        7.8210489118  MEMB      65              0.0000000000
      7994        65  POPE      C28            35.2419198141        8.9584863959        6.7834062151  MEMB      65              0.0000000000
      7995        65  POPE      H8R            35.9381783398        8.0966801196        6.9019634729  MEMB      65              0.0000000000
      7996        65  POPE      H8S            35.4605340769        9.3835570514        5.7793408845  MEMB      65              0.0000000000
      7997        65  POPE      C29            33.8000021677        8.4815570559        6.9040077727  MEMB      65              0.0000000000
      7998        65  POPE      H91            33.5167193288        8.0136988689        7.8533234926  MEMB      65              0.0000000000
      7999        65  POPE      C210           32.8682698765        8.4894884990        5.9412308126  MEMB      65              0.0000000000
      8000        65  POPE      H101           31.8679147862        8.0561643752        6.1071761741  MEMB      65              0.0000000000
      8001        65  POPE      C211           33.1308298817        8.9893054832        4.5669719820  MEMB      65              0.0000000000
      8002        65  POPE      H11R           33.8508424518        8.3581877779        4.0321095461  MEMB      65              0.0000000000
      8003        65  POPE      H11S           33.5765244809       10.0151029665        4.5638829840  MEMB      65              0.0000000000
      8004        65  POPE      C212           31.9194218856        8.9144193292        3.6904552689  MEMB      65              0.0000000000
      8005        65  POPE      H12R           31.3543585197        9.7949948309        3.9792082367  MEMB      65              0.0000000000
      8006        65  POPE      H12S           31.0926171888        8.1999022524        3.7963202884  MEMB      65              0.0000000000
      8007        65  POPE      C213           32.4411194725        8.8361279689        2.2786050839  MEMB      65              0.0000000000
      8008        65  POPE      H13R           33.1369756057        8.0566584285        1.9793296864  MEMB      65              0.0000000000
      8009        65  POPE      H13S           33.0250809104        9.7438039471        2.1296927011  MEMB      65              0.0000000000
      8010        65  POPE      C214           31.2667994634        8.8663833576        1.4047966188  MEMB      65              0.0000000000
      8011        65  POPE      H14R           31.3965196452        9.9587932671        1.2344335236  MEMB      65              0.0000000000
      8012        65  POPE      H14S           30.3807914064        8.4712317724        1.8638756410  MEMB      65              0.0000000000
      8013        65  POPE      C215           31.1941858695        8.2290725774        0.0735159817  MEMB      65              0.0000000000
      8014        65  POPE      H15R           31.9837460577        7.4900115138        0.1938130721  MEMB      65              0.0000000000
      8015        65  POPE      H15S           31.4918909373        9.1012394269       -0.4711118908  MEMB      65              0.0000000000
      8016        65  POPE      C216           30.0486246448        8.2239634672       -0.9956756076  MEMB      65              0.0000000000
      8017        65  POPE      H16R           29.6262251831        9.2518457145       -1.1584944698  MEMB      65              0.0000000000
      8018        65  POPE      H16S           29.3943797962        7.4022095229       -0.8161494066  MEMB      65              0.0000000000
      8019        65  POPE      C217           30.1998606704        7.7513549474       -2.4343995918  MEMB      65              0.0000000000
      8020        65  POPE      H17R           30.8454486201        8.5970970895       -2.7501434860  MEMB      65              0.0000000000
      8021        65  POPE      H17S           29.3461486662        7.9145445728       -3.1023582063  MEMB      65              0.0000000000
      8022        65  POPE      C218           30.6060982649        6.2661151539       -2.7465417653  MEMB      65              0.0000000000
      8023        65  POPE      H18R           30.8740979815        5.9647020295       -3.7778865103  MEMB      65              0.0000000000
      8024        65  POPE      H18S           30.2188422689        5.4832405927       -2.1634444638  MEMB      65              0.0000000000
      8025        65  POPE      H18T           31.5562749399        6.0251697811       -2.3348718215  MEMB      65              0.0000000000
      8026        65  POPE      C33            34.0155771599        4.6481486720       13.3369125214  MEMB      65              0.0000000000
      8027        65  POPE      H3X            33.4321257164        5.5337479451       13.0443300974  MEMB      65              0.0000000000
      8028        65  POPE      H3Y            33.2058658793        3.9765622171       13.5055163243  MEMB      65              0.0000000000
      8029        65  POPE      C34            34.9998979838        4.1903568107       12.2669246431  MEMB      65              0.0000000000
      8030        65  POPE      H4X            34.9017157601        3.1421497527       12.0850929348  MEMB      65              0.0000000000
      8031        65  POPE      H4Y            36.0499585855        4.1848392888       12.6125729854  MEMB      65              0.0000000000
      8032        65  POPE      C35            34.7896250630        4.9882052641       10.9917401885  MEMB      65              0.0000000000
      8033        65  POPE      H5X            35.5356131187        5.8133698828       10.9874651712  MEMB      65              0.0000000000
      8034        65  POPE      H5Y            33.7648286370        5.3951686907       10.9216300888  MEMB      65              0.0000000000
      8035        65  POPE      C36            34.8989708821        4.2037914461        9.7349326626  MEMB      65              0.0000000000
      8036        65  POPE      H6X            34.1296439838        4.4536610208        8.9740531225  MEMB      65              0.0000000000
      8037        65  POPE      H6Y            34.8450711428        3.1309807686        9.9577387781  MEMB      65              0.0000000000
      8038        65  POPE      C37            36.1705143449        4.6080041754        9.1434642115  MEMB      65              0.0000000000
      8039        65  POPE      H7X            37.0177117652        4.0502881006        9.6438931826  MEMB      65              0.0000000000
      8040        65  POPE      H7Y            36.3213037518        5.6907363398        8.9539656539  MEMB      65              0.0000000000
      8041        65  POPE      C38            36.2295707970        4.2468031263        7.7822214815  MEMB      65              0.0000000000
      8042        65  POPE      H8X            35.9551193508        3.2188146866        8.0497560496  MEMB      65              0.0000000000
      8043        65  POPE      H8Y            37.3026461535        4.4306379039        7.4650365069  MEMB      65              0.0000000000
      8044        65  POPE      C39            35.1454143156        4.2834397073        6.7752361488  MEMB      65              0.0000000000
      8045        65  POPE      H9X            34.5298736509        3.4102296982        6.4790966925  MEMB      65              0.0000000000
      8046        65  POPE      H9Y            35.8048940093        3.9363504870        6.0794936126  MEMB      65              0.0000000000
      8047        65  POPE      C310           35.2956179959        5.5275030960        6.0495279941  MEMB      65              0.0000000000
      8048        65  POPE      H10X           36.3858339937        5.7303740724        5.7927097235  MEMB      65              0.0000000000
      8049        65  POPE      H10Y           34.9216060341        6.1105281883        6.8838929142  MEMB      65              0.0000000000
      8050        65  POPE      C311           34.3912664320        5.6137789440        4.9121135510  MEMB      65              0.0000000000
      8051        65  POPE      H11X           34.2767142881        6.6770971142        4.6684107073  MEMB      65              0.0000000000
      8052        65  POPE      H11Y           33.5141443734        4.9331156116        4.8132841703  MEMB      65              0.0000000000
      8053        65  POPE      C312           35.0154281775        5.1978102689        3.7419975232  MEMB      65              0.0000000000
      8054        65  POPE      H12X           34.9473973358        4.0852831529        3.6232717298  MEMB      65              0.0000000000
      8055        65  POPE      H12Y           36.0655768496        5.6861419482        3.6975074719  MEMB      65              0.0000000000
      8056        65  POPE      C313           34.1734748666        5.7133471225        2.6734220103  MEMB      65              0.0000000000
      8057        65  POPE      H13X           35.0584570808        5.2691041299        2.2471758110  MEMB      65              0.0000000000
      8058        65  POPE      H13Y           34.6568259651        6.6754695121        2.4464266563  MEMB      65              0.0000000000
      8059        65  POPE      C314           32.6955445644        5.0522334164        1.8528737621  MEMB      65              0.0000000000
      8060        65  POPE      H14X           32.4809209683        5.9824669804        2.3334066986  MEMB      65              0.0000000000
      8061        65  POPE      H14Y           33.1132692107        4.1386156662        2.3544726895  MEMB      65              0.0000000000
      8062        65  POPE      C315           32.1643611647        5.0605966747        0.0248614889  MEMB      65              0.0000000000
      8063        65  POPE      H15X           32.9027218299        4.8329443943       -0.8591514023  MEMB      65              0.0000000000
      8064        65  POPE      H15Y           32.5789395747        5.6878571790       -0.8453535353  MEMB      65              0.0000000000
      8065        65  POPE      C316           31.3169479003        4.0998513134       -0.6319723090  MEMB      65              0.0000000000
      8066        65  POPE      H16X           31.7119882202        4.0177295614       -1.7440364791  MEMB      65              0.0000000000
      8067        65  POPE      H16Y           30.5934875567        4.8947694558       -0.4584350038  MEMB      65              0.0000000000
      8068        65  POPE      H16Z           31.6415210827        3.3430495114        0.1073513081  MEMB      65              0.0000000000
      8069        66  OYPE      N              36.6722506562       -8.4546145071       22.3760240783  MEMB      66              0.0000000000
      8070        66  OYPE      HN1            36.8274130481       -9.4323669328       22.7082959869  MEMB      66              0.0000000000
      8071        66  OYPE      HN2            37.5584498971       -8.1326078365       21.9189338095  MEMB      66              0.0000000000
      8072        66  OYPE      HN3            36.4689241185       -7.8348632054       23.1927268744  MEMB      66              0.0000000000
      8073        66  OYPE      C12            35.5490497032       -8.4101522902       21.3655355003  MEMB      66              0.0000000000
      8074        66  OYPE      H12A           35.4984214858       -7.3690440409       20.9928586232  MEMB      66              0.0000000000
      8075        66  OYPE      H12B           34.6098203502       -8.6258161295       21.9136740771  MEMB      66              0.0000000000
      8076        66  OYPE      C11            35.7899518060       -9.3151562597       20.1327439432  MEMB      66              0.0000000000
      8077        66  OYPE      H11A           35.7153955752      -10.3874337450       20.4070661406  MEMB      66              0.0000000000
      8078        66  OYPE      H11B           36.8269595437       -9.1541811838       19.7523014971  MEMB      66              0.0000000000
      8079        66  OYPE      P              35.1832252564       -9.1034509686       17.5533976216  MEMB      66              0.0000000000
      8080        66  OYPE      O13            33.9391020740       -8.8202272214       16.8046473077  MEMB      66              0.0000000000
      8081        66  OYPE      O14            35.8926335139      -10.3788474609       17.3445092321  MEMB      66              0.0000000000
      8082        66  OYPE      O11            36.1880624206       -7.9021506097       17.4591866986  MEMB      66              0.0000000000
      8083        66  OYPE      O12            34.8213608007       -9.0247926441       19.1216402550  MEMB      66              0.0000000000
      8084        66  OYPE      C1             35.6994263340       -6.6035435359       17.1863603505  MEMB      66              0.0000000000
      8085        66  OYPE      HA             36.0571901229       -5.8757126463       17.9434120277  MEMB      66              0.0000000000
      8086        66  OYPE      HB             34.5720415721       -6.5344095650       17.1977194352  MEMB      66              0.0000000000
      8087        66  OYPE      C2             36.1740090213       -6.0656185076       15.8251190030  MEMB      66              0.0000000000
      8088        66  OYPE      HS             35.7215934940       -5.1681333131       15.6144675965  MEMB      66              0.0000000000
      8089        66  OYPE      O21            36.2379474767       -7.0406012601       14.7354257662  MEMB      66              0.0000000000
      8090        66  OYPE      C21            35.0893683304       -7.4602766813       14.1458250593  MEMB      66              0.0000000000
      8091        66  OYPE      O22            33.9535615560       -7.3461954051       14.5161113079  MEMB      66              0.0000000000
      8092        66  OYPE      C22            35.2787388446       -7.8259892866       12.6884746418  MEMB      66              0.0000000000
      8093        66  OYPE      H2R            36.1362161025       -7.3273494442       12.2075946443  MEMB      66              0.0000000000
      8094        66  OYPE      H2S            34.3348216574       -7.5935780835       12.1325806521  MEMB      66              0.0000000000
      8095        66  OYPE      C3             37.5345837605       -5.2849176332       15.8712288424  MEMB      66              0.0000000000
      8096        66  OYPE      HX             38.3280505748       -5.9410356682       16.2308192435  MEMB      66              0.0000000000
      8097        66  OYPE      HY             37.3982482266       -4.4421398973       16.6096158225  MEMB      66              0.0000000000
      8098        66  OYPE      O31            37.7928942406       -4.5803240588       14.6256452903  MEMB      66              0.0000000000
      8099        66  OYPE      C31            38.5473260490       -5.2351049614       13.7656842126  MEMB      66              0.0000000000
      8100        66  OYPE      O32            39.0240202621       -6.3387846443       13.9432739751  MEMB      66              0.0000000000
      8101        66  OYPE      C32            38.6727053512       -4.4382632706       12.4594424119  MEMB      66              0.0000000000
      8102        66  OYPE      H2X            38.2980348397       -3.4043848878       12.5538060754  MEMB      66              0.0000000000
      8103        66  OYPE      H2Y            39.7517335259       -4.3574011350       12.2843412847  MEMB      66              0.0000000000
      8104        66  OYPE      C23            35.3331340070       -9.2893901674       12.8564494486  MEMB      66              0.0000000000
      8105        66  OYPE      H3R            34.5572955529       -9.6189002561       13.6014363353  MEMB      66              0.0000000000
      8106        66  OYPE      H3S            36.2849026676       -9.4621196148       13.3651324151  MEMB      66              0.0000000000
      8107        66  OYPE      C24            35.0353200667      -10.1246412819       11.6474469929  MEMB      66              0.0000000000
      8108        66  OYPE      H4R            35.7884784220      -10.0430162488       10.8363430827  MEMB      66              0.0000000000
      8109        66  OYPE      H4S            34.0589424130       -9.7967832886       11.2146592683  MEMB      66              0.0000000000
      8110        66  OYPE      C25            35.0300375602      -11.5282679904       12.2427773626  MEMB      66              0.0000000000
      8111        66  OYPE      H5R            34.4602234388      -11.5606103370       13.2041681758  MEMB      66              0.0000000000
      8112        66  OYPE      H5S            36.0699453127      -11.8358651739       12.4620414479  MEMB      66              0.0000000000
      8113        66  OYPE      C26            34.3955571970      -12.5449909130       11.3669406983  MEMB      66              0.0000000000
      8114        66  OYPE      H6R            33.3615829586      -12.1604405840       11.2372219753  MEMB      66              0.0000000000
      8115        66  OYPE      H6S            34.3444145748      -13.5209913466       11.8987524377  MEMB      66              0.0000000000
      8116        66  OYPE      C27            35.0576351317      -12.7198227546       10.0035734200  MEMB      66              0.0000000000
      8117        66  OYPE      H7R            35.0705002657      -11.7957508163        9.3893724391  MEMB      66              0.0000000000
      8118        66  OYPE      H7S            34.3416416600      -13.4092436639        9.5895176364  MEMB      66              0.0000000000
      8119        66  OYPE      C28            36.3200689178      -13.5683323467        9.8939841402  MEMB      66              0.0000000000
      8120        66  OYPE      H8R            36.4865796867      -13.9545359985        8.8682037334  MEMB      66              0.0000000000
      8121        66  OYPE      H8S            36.2497882777      -14.4501978536       10.5648581255  MEMB      66              0.0000000000
      8122        66  OYPE      C29            37.4851545271      -12.7619810138       10.2698723601  MEMB      66              0.0000000000
      8123        66  OYPE      H9R            37.7794924484      -12.9872109451       11.3059624598  MEMB      66              0.0000000000
      8124        66  OYPE      C210           38.0533656209      -11.7541536961        9.5857164695  MEMB      66              0.0000000000
      8125        66  OYPE      H10R           38.8842570565      -11.2550275035       10.0887653903  MEMB      66              0.0000000000
      8126        66  OYPE      C211           37.7254371120      -11.1030522690        8.2567264096  MEMB      66              0.0000000000
      8127        66  OYPE      H11R           37.6059991665      -10.0073552249        8.4013692742  MEMB      66              0.0000000000
      8128        66  OYPE      H11S           36.8160751327      -11.5340103089        7.8083960892  MEMB      66              0.0000000000
      8129        66  OYPE      C212           38.8406778141      -11.1813759566        7.2309682278  MEMB      66              0.0000000000
      8130        66  OYPE      H12R           38.9678489825      -12.2707327072        7.0319285599  MEMB      66              0.0000000000
      8131        66  OYPE      H12S           39.7300348704      -10.7186071335        7.7359016560  MEMB      66              0.0000000000
      8132        66  OYPE      C213           38.7241983688      -10.4585254747        5.8764556372  MEMB      66              0.0000000000
      8133        66  OYPE      H13R           39.6940225392      -10.3909501171        5.3254362944  MEMB      66              0.0000000000
      8134        66  OYPE      H13S           38.5106245296       -9.3994422022        6.1184738857  MEMB      66              0.0000000000
      8135        66  OYPE      C214           37.7333722783      -11.0925681370        4.9380166085  MEMB      66              0.0000000000
      8136        66  OYPE      H14R           36.7890988422      -11.0526511871        5.5013978334  MEMB      66              0.0000000000
      8137        66  OYPE      H14S           37.9283528196      -12.1559381550        4.7495125722  MEMB      66              0.0000000000
      8138        66  OYPE      C215           37.6492918575      -10.4003197391        3.5888015808  MEMB      66              0.0000000000
      8139        66  OYPE      H15R           38.5484785475      -10.5724817573        2.9637361292  MEMB      66              0.0000000000
      8140        66  OYPE      H15S           37.7052504156       -9.3540539615        3.8240616206  MEMB      66              0.0000000000
      8141        66  OYPE      C216           36.3856288674      -10.7315053097        2.7960599418  MEMB      66              0.0000000000
      8142        66  OYPE      H16R           36.2861576257      -11.8266801765        2.7279614309  MEMB      66              0.0000000000
      8143        66  OYPE      H16S           36.4617327565      -10.3122687001        1.7670981379  MEMB      66              0.0000000000
      8144        66  OYPE      H16T           35.4584415109      -10.3473333582        3.2798206522  MEMB      66              0.0000000000
      8145        66  OYPE      C33            37.9851075109       -5.2367532815       11.3166001534  MEMB      66              0.0000000000
      8146        66  OYPE      H3X            37.0353555306       -5.5574829382       11.7686568368  MEMB      66              0.0000000000
      8147        66  OYPE      H3Y            38.5313361906       -6.1918425652       11.1959102870  MEMB      66              0.0000000000
      8148        66  OYPE      C34            37.5858882817       -4.5241294574        9.9760246828  MEMB      66              0.0000000000
      8149        66  OYPE      H4X            36.8575748928       -3.7285332076       10.1465401215  MEMB      66              0.0000000000
      8150        66  OYPE      H4Y            38.0698785317       -3.6604554561        9.5945051943  MEMB      66              0.0000000000
      8151        66  OYPE      C35            37.6564805302       -5.3455033372        8.6522568977  MEMB      66              0.0000000000
      8152        66  OYPE      H5X            38.5436875742       -5.9280798604        8.4525301859  MEMB      66              0.0000000000
      8153        66  OYPE      H5Y            37.5380754519       -4.6472093332        7.7815116358  MEMB      66              0.0000000000
      8154        66  OYPE      C36            36.7482469210       -6.5342852398        8.6615731382  MEMB      66              0.0000000000
      8155        66  OYPE      H6X            36.6981549829       -7.3365788095        9.3839161647  MEMB      66              0.0000000000
      8156        66  OYPE      H6Y            36.2016749424       -5.9967077852        9.4239575408  MEMB      66              0.0000000000
      8157        66  OYPE      C37            36.1648545885       -6.8639742969        7.2818272670  MEMB      66              0.0000000000
      8158        66  OYPE      H7X            35.5084545261       -6.0825964701        7.1385065653  MEMB      66              0.0000000000
      8159        66  OYPE      H7Y            36.7898659349       -6.6350756507        6.3934046674  MEMB      66              0.0000000000
      8160        66  OYPE      C38            35.1234210188       -8.0008681123        7.1274525549  MEMB      66              0.0000000000
      8161        66  OYPE      H8X            34.8012821298       -7.9541695528        6.0487479032  MEMB      66              0.0000000000
      8162        66  OYPE      H8Y            35.7713255139       -8.8654986513        7.2889143489  MEMB      66              0.0000000000
      8163        66  OYPE      C39            33.9145784051       -8.1384279171        8.0558636000  MEMB      66              0.0000000000
      8164        66  OYPE      H9X            33.9852110699       -7.7868159048        9.0841512180  MEMB      66              0.0000000000
      8165        66  OYPE      C310           32.7177131427       -8.6208585543        7.7503289584  MEMB      66              0.0000000000
      8166        66  OYPE      H10X           31.9326716031       -8.7230948026        8.5138134671  MEMB      66              0.0000000000
      8167        66  OYPE      C311           32.4016916396       -9.1234890715        6.4065576051  MEMB      66              0.0000000000
      8168        66  OYPE      H11X           33.3321074597       -9.6404081141        6.0427530246  MEMB      66              0.0000000000
      8169        66  OYPE      H11Y           31.5404444585       -9.8053514605        6.5485381710  MEMB      66              0.0000000000
      8170        66  OYPE      C312           31.9152912613       -8.2495203365        5.2767214997  MEMB      66              0.0000000000
      8171        66  OYPE      H12X           32.2613138267       -7.3038387671        5.5909955260  MEMB      66              0.0000000000
      8172        66  OYPE      H12Y           30.8144529206       -8.1333285259        5.2826627893  MEMB      66              0.0000000000
      8173        66  OYPE      C313           32.3535605555       -8.7414229649        3.8956109255  MEMB      66              0.0000000000
      8174        66  OYPE      H13X           33.3018700133       -9.3367522850        3.8547685539  MEMB      66              0.0000000000
      8175        66  OYPE      H13Y           31.5079903528       -9.3857390520        3.7994082852  MEMB      66              0.0000000000
      8176        66  OYPE      C314           32.1643839924       -7.8309979291        2.6906561991  MEMB      66              0.0000000000
      8177        66  OYPE      H14X           31.6496941230       -6.9235811853        3.0331854568  MEMB      66              0.0000000000
      8178        66  OYPE      H14Y           31.6070039649       -8.0143769116        1.7875938527  MEMB      66              0.0000000000
      8179        66  OYPE      C315           33.4007367749       -7.7748152047        1.9042474194  MEMB      66              0.0000000000
      8180        66  OYPE      H15X           33.2275374063       -7.1363713025        0.9800135840  MEMB      66              0.0000000000
      8181        66  OYPE      H15Y           34.0541445631       -8.6368640679        1.6670946799  MEMB      66              0.0000000000
      8182        66  OYPE      C316           34.2005354897       -7.1386544808        2.9280184323  MEMB      66              0.0000000000
      8183        66  OYPE      H16X           34.3793048749       -7.4336469271        3.9454643078  MEMB      66              0.0000000000
      8184        66  OYPE      H16Y           33.5480867014       -6.2311436367        2.8256102291  MEMB      66              0.0000000000
      8185        66  OYPE      C317           35.5152997213       -7.0399487000        2.4428065342  MEMB      66              0.0000000000
      8186        66  OYPE      H17X           36.1718228723       -6.2725394924        2.8979841094  MEMB      66              0.0000000000
      8187        66  OYPE      H17Y           35.1132564974       -6.7987974693        1.4164796316  MEMB      66              0.0000000000
      8188        66  OYPE      C318           36.8082068036       -7.6409854813        2.6063887275  MEMB      66              0.0000000000
      8189        66  OYPE      H18X           37.0445025433       -7.7605569601        3.6523044226  MEMB      66              0.0000000000
      8190        66  OYPE      H18Y           36.4823940050       -8.2765770231        1.7568268896  MEMB      66              0.0000000000
      8191        66  OYPE      H18Z           37.7307383228       -6.9877943046        2.4420811638  MEMB      66              0.0000000000
      8192        67  PMPE      N             -33.1439163875       15.8075986464       18.6609672957  MEMB      67              0.0000000000
      8193        67  PMPE      HN1           -33.8621355040       16.5616445997       18.6797960836  MEMB      67              0.0000000000
      8194        67  PMPE      HN2           -32.6152912244       15.9321350371       17.7752354356  MEMB      67              0.0000000000
      8195        67  PMPE      HN3           -33.5658697977       14.8463745867       18.7142067973  MEMB      67              0.0000000000
      8196        67  PMPE      C12           -32.2431309731       16.0765302869       19.8382795966  MEMB      67              0.0000000000
      8197        67  PMPE      H12A          -31.5877410895       15.1980748069       19.9531316305  MEMB      67              0.0000000000
      8198        67  PMPE      H12B          -32.8848120104       16.1523602467       20.7382109431  MEMB      67              0.0000000000
      8199        67  PMPE      C11           -31.3721569222       17.3283178519       19.5964262051  MEMB      67              0.0000000000
      8200        67  PMPE      H11A          -30.6259685647       17.0354957767       18.8189942854  MEMB      67              0.0000000000
      8201        67  PMPE      H11B          -30.8164689355       17.6020934528       20.5308201030  MEMB      67              0.0000000000
      8202        67  PMPE      P             -31.3893806568       19.8204726712       18.8492406029  MEMB      67              0.0000000000
      8203        67  PMPE      O13           -29.9966969517       19.7819124998       19.3786024702  MEMB      67              0.0000000000
      8204        67  PMPE      O14           -32.2262482091       20.9542191855       19.2479376039  MEMB      67              0.0000000000
      8205        67  PMPE      O11           -31.3217317320       19.8020792801       17.2877394089  MEMB      67              0.0000000000
      8206        67  PMPE      O12           -32.1528409037       18.4342319976       19.1355391589  MEMB      67              0.0000000000
      8207        67  PMPE      C1            -30.0800858246       19.7697609008       16.5875186398  MEMB      67              0.0000000000
      8208        67  PMPE      HA            -29.4354377176       18.9599033493       17.0023145650  MEMB      67              0.0000000000
      8209        67  PMPE      HB            -29.5359797304       20.7374465067       16.6812056861  MEMB      67              0.0000000000
      8210        67  PMPE      C2            -30.3102472873       19.4424368257       15.0685401010  MEMB      67              0.0000000000
      8211        67  PMPE      HS            -29.4507071518       19.8452707290       14.4753300782  MEMB      67              0.0000000000
      8212        67  PMPE      O21           -31.5587327165       19.8728048516       14.4842884985  MEMB      67              0.0000000000
      8213        67  PMPE      C21           -31.7750269948       21.1291563179       14.6587249310  MEMB      67              0.0000000000
      8214        67  PMPE      O22           -30.9998726673       21.9128043551       15.1388654994  MEMB      67              0.0000000000
      8215        67  PMPE      C22           -33.1071864410       21.5428296419       14.1497334659  MEMB      67              0.0000000000
      8216        67  PMPE      H2R           -33.7369338930       21.7853838939       15.0162006179  MEMB      67              0.0000000000
      8217        67  PMPE      H2S           -33.6054353221       20.7401017210       13.5585658105  MEMB      67              0.0000000000
      8218        67  PMPE      C3            -30.3226101475       17.9171297735       14.9671994162  MEMB      67              0.0000000000
      8219        67  PMPE      HX            -30.8518519971       17.6000278489       15.8930703758  MEMB      67              0.0000000000
      8220        67  PMPE      HY            -29.2930510078       17.5061170013       15.0072082357  MEMB      67              0.0000000000
      8221        67  PMPE      O31           -31.0750850019       17.4069219777       13.8560348167  MEMB      67              0.0000000000
      8222        67  PMPE      C31           -30.4328310991       17.4751260577       12.7038248636  MEMB      67              0.0000000000
      8223        67  PMPE      O32           -29.3798944816       18.0501412559       12.4957882153  MEMB      67              0.0000000000
      8224        67  PMPE      C32           -31.1573705152       16.5575949691       11.7209517243  MEMB      67              0.0000000000
      8225        67  PMPE      H2X           -32.2311279462       16.5311840259       11.9986823961  MEMB      67              0.0000000000
      8226        67  PMPE      H2Y           -30.7466842498       15.5340908507       11.8365579607  MEMB      67              0.0000000000
      8227        67  PMPE      C23           -32.9100216846       22.7999721466       13.3354840002  MEMB      67              0.0000000000
      8228        67  PMPE      H3R           -32.3306431843       23.6955865821       13.5640081044  MEMB      67              0.0000000000
      8229        67  PMPE      H3S           -33.8919284769       23.1869554029       13.2410141606  MEMB      67              0.0000000000
      8230        67  PMPE      C24           -32.4610085759       22.4011206582       12.0180231669  MEMB      67              0.0000000000
      8231        67  PMPE      H4R           -32.5289151169       23.3502888513       11.4158851381  MEMB      67              0.0000000000
      8232        67  PMPE      H4S           -33.0979746271       21.5067287598       11.8238479789  MEMB      67              0.0000000000
      8233        67  PMPE      C25           -31.1393141305       21.8073842014       11.6981590202  MEMB      67              0.0000000000
      8234        67  PMPE      H5R           -31.1900936088       20.7292539104       11.9960627636  MEMB      67              0.0000000000
      8235        67  PMPE      H5S           -30.4615306557       22.5353179762       12.0961025641  MEMB      67              0.0000000000
      8236        67  PMPE      C26           -30.7731125137       21.7279887274       10.2591123445  MEMB      67              0.0000000000
      8237        67  PMPE      H6R           -30.6200800660       22.7299721673        9.8164643585  MEMB      67              0.0000000000
      8238        67  PMPE      H6S           -31.7331475583       21.2898874701       10.0923737201  MEMB      67              0.0000000000
      8239        67  PMPE      C27           -29.7871653193       20.6357141475        9.9472278517  MEMB      67              0.0000000000
      8240        67  PMPE      H7R           -30.0838379599       19.6973896369       10.4245800763  MEMB      67              0.0000000000
      8241        67  PMPE      H7S           -28.8739956959       21.0979286155       10.3751306255  MEMB      67              0.0000000000
      8242        67  PMPE      C28           -29.5347390731       20.1758313186        8.5280794274  MEMB      67              0.0000000000
      8243        67  PMPE      H8R           -28.9472215376       21.0452320230        8.2958365206  MEMB      67              0.0000000000
      8244        67  PMPE      H8S           -30.3923355521       19.9487278927        7.8624203379  MEMB      67              0.0000000000
      8245        67  PMPE      C29           -28.5814775529       19.0727472265        8.4347913220  MEMB      67              0.0000000000
      8246        67  PMPE      H9R           -28.7688095274       18.2149339385        9.0483586571  MEMB      67              0.0000000000
      8247        67  PMPE      C217          -27.2406047004       19.7379157048        8.6366846600  MEMB      67              0.0000000000
      8248        67  PMPE      H17R          -26.6348040595       19.2154313940        9.3472912477  MEMB      67              0.0000000000
      8249        67  PMPE      H17S          -27.0751457387       20.7829828732        8.3453538393  MEMB      67              0.0000000000
      8250        67  PMPE      C210          -27.4921502015       18.8079230542        7.4914810425  MEMB      67              0.0000000000
      8251        67  PMPE      H10R          -27.1459525930       17.8024507762        7.5266188530  MEMB      67              0.0000000000
      8252        67  PMPE      C211          -27.4100340030       19.3331753856        6.2237441074  MEMB      67              0.0000000000
      8253        67  PMPE      H11R          -26.6784564865       18.8988299290        5.6218257172  MEMB      67              0.0000000000
      8254        67  PMPE      H11S          -26.8592626688       20.3175188313        6.3234803587  MEMB      67              0.0000000000
      8255        67  PMPE      C212          -28.7079601130       19.0570858531        5.4231215854  MEMB      67              0.0000000000
      8256        67  PMPE      H12R          -27.9933530422       19.1698015302        4.6419729668  MEMB      67              0.0000000000
      8257        67  PMPE      H12S          -29.5484169335       19.7662131934        5.3315893441  MEMB      67              0.0000000000
      8258        67  PMPE      C213          -29.6689890336       18.0867737893        4.8945975135  MEMB      67              0.0000000000
      8259        67  PMPE      H13R          -30.1161564384       18.0664523245        5.9171273557  MEMB      67              0.0000000000
      8260        67  PMPE      H13S          -28.9324580705       17.3716753864        4.5182378805  MEMB      67              0.0000000000
      8261        67  PMPE      C214          -30.7172359371       18.6521715040        3.8348268366  MEMB      67              0.0000000000
      8262        67  PMPE      H14R          -30.3681378884       18.9727689476        2.8190093122  MEMB      67              0.0000000000
      8263        67  PMPE      H14S          -31.3668370829       19.5053627901        4.1817183912  MEMB      67              0.0000000000
      8264        67  PMPE      C215          -31.5182786856       17.4935535669        3.3649411163  MEMB      67              0.0000000000
      8265        67  PMPE      H15R          -31.9187286769       17.0561689117        4.3011688081  MEMB      67              0.0000000000
      8266        67  PMPE      H15S          -30.7392918936       16.8322865776        2.9107888691  MEMB      67              0.0000000000
      8267        67  PMPE      C216          -32.5904683861       17.8888547278        2.3571392562  MEMB      67              0.0000000000
      8268        67  PMPE      H16R          -33.0695380511       16.9881825999        1.9267715490  MEMB      67              0.0000000000
      8269        67  PMPE      H16S          -33.3616299068       18.5161032950        2.8579463449  MEMB      67              0.0000000000
      8270        67  PMPE      H16T          -32.1645391323       18.4776239387        1.5136064625  MEMB      67              0.0000000000
      8271        67  PMPE      C33           -30.9442497405       17.0539300327       10.2792731264  MEMB      67              0.0000000000
      8272        67  PMPE      H3X           -29.8842908980       16.9161921401        9.9851077216  MEMB      67              0.0000000000
      8273        67  PMPE      H3Y           -31.2339165374       18.1210646819       10.2410378333  MEMB      67              0.0000000000
      8274        67  PMPE      C34           -31.8227834548       16.4230164702        9.2247187932  MEMB      67              0.0000000000
      8275        67  PMPE      H4X           -32.8727947482       16.4282325005        9.6129884359  MEMB      67              0.0000000000
      8276        67  PMPE      H4Y           -31.4846811746       15.3833756496        9.0526326401  MEMB      67              0.0000000000
      8277        67  PMPE      C35           -31.7746598650       17.0683341815        7.8266766228  MEMB      67              0.0000000000
      8278        67  PMPE      H5X           -32.2249064574       16.5190042545        6.9833269418  MEMB      67              0.0000000000
      8279        67  PMPE      H5Y           -30.7382516970       17.0871610615        7.4683427702  MEMB      67              0.0000000000
      8280        67  PMPE      C36           -32.6761245377       18.2825324850        7.7372173683  MEMB      67              0.0000000000
      8281        67  PMPE      H6X           -32.4678348058       18.7714882333        6.7622825384  MEMB      67              0.0000000000
      8282        67  PMPE      H6Y           -32.3718582697       18.9057749398        8.5908098825  MEMB      67              0.0000000000
      8283        67  PMPE      C37           -34.1947376861       18.0049956129        7.8544630897  MEMB      67              0.0000000000
      8284        67  PMPE      H7X           -34.4396318220       17.8941267578        8.9360717388  MEMB      67              0.0000000000
      8285        67  PMPE      H7Y           -34.4969683722       17.1039687205        7.2954062051  MEMB      67              0.0000000000
      8286        67  PMPE      C38           -35.0883388377       19.0622486813        7.2186177570  MEMB      67              0.0000000000
      8287        67  PMPE      H8X           -34.6164329989       19.9595183429        7.3988677917  MEMB      67              0.0000000000
      8288        67  PMPE      H8Y           -36.1067683956       19.1197865727        7.6483490230  MEMB      67              0.0000000000
      8289        67  PMPE      C39           -35.0349688328       19.1820336374        5.7012923674  MEMB      67              0.0000000000
      8290        67  PMPE      H9X           -35.5687163270       18.2817632670        5.3988652959  MEMB      67              0.0000000000
      8291        67  PMPE      H9Y           -33.9964597700       19.2435001243        5.3041377011  MEMB      67              0.0000000000
      8292        67  PMPE      C310          -35.7473330622       20.3787846629        5.1291422473  MEMB      67              0.0000000000
      8293        67  PMPE      H10X          -36.8156126933       20.3340097528        5.4863777305  MEMB      67              0.0000000000
      8294        67  PMPE      H10Y          -35.7524274018       20.5009029753        4.0375000808  MEMB      67              0.0000000000
      8295        67  PMPE      C311          -35.1280654404       21.6501805286        5.5934201612  MEMB      67              0.0000000000
      8296        67  PMPE      H11X          -35.4040226989       21.5891528643        6.6603144738  MEMB      67              0.0000000000
      8297        67  PMPE      H11Y          -35.6673152341       22.3944979507        4.9770582837  MEMB      67              0.0000000000
      8298        67  PMPE      C312          -33.7969157002       22.2700595419        5.4160024006  MEMB      67              0.0000000000
      8299        67  PMPE      H12X          -33.1316256024       21.5250748015        5.7784430100  MEMB      67              0.0000000000
      8300        67  PMPE      H12Y          -33.6797673327       23.2456114082        5.9755102750  MEMB      67              0.0000000000
      8301        67  PMPE      C313          -33.4411160508       22.4000256105        3.9926967388  MEMB      67              0.0000000000
      8302        67  PMPE      H13X          -33.9720672383       23.1963982785        3.5374345027  MEMB      67              0.0000000000
      8303        67  PMPE      H13Y          -33.6757145932       21.4382910292        3.5033962037  MEMB      67              0.0000000000
      8304        67  PMPE      C314          -32.0193760461       22.7803284763        3.9107788034  MEMB      67              0.0000000000
      8305        67  PMPE      H14X          -31.7027555454       21.9132529580        4.4848796529  MEMB      67              0.0000000000
      8306        67  PMPE      H14Y          -31.7819667261       23.7156472034        4.4781494422  MEMB      67              0.0000000000
      8307        67  PMPE      C315          -31.3951480501       22.8175585155        2.5371968687  MEMB      67              0.0000000000
      8308        67  PMPE      H15X          -30.4555068048       23.2779843909        2.7744024830  MEMB      67              0.0000000000
      8309        67  PMPE      H15Y          -31.4588161327       23.6674501948        1.8818757024  MEMB      67              0.0000000000
      8310        67  PMPE      C316          -31.6848662937       21.7378542008        1.4876608106  MEMB      67              0.0000000000
      8311        67  PMPE      H16X          -31.4100645845       22.1415431496        0.4823955516  MEMB      67              0.0000000000
      8312        67  PMPE      H16Y          -32.7298627260       21.4226326402        1.4634457373  MEMB      67              0.0000000000
      8313        67  PMPE      H16Z          -31.0547563750       20.8470031499        1.6578684049  MEMB      67              0.0000000000
      8314        68  PYPG      C13            28.0006216966      -20.2231834154       17.9159869157  MEMB      68              0.0000000000
      8315        68  PYPG      H13A           27.2675596020      -19.4050224260       18.1035480486  MEMB      68              0.0000000000
      8316        68  PYPG      H13B           28.7495577909      -19.8425726196       17.1885044787  MEMB      68              0.0000000000
      8317        68  PYPG      OC3            27.2808155703      -21.3190036547       17.3474421385  MEMB      68              0.0000000000
      8318        68  PYPG      HO3            26.3478698437      -21.2164880750       17.5835420076  MEMB      68              0.0000000000
      8319        68  PYPG      C12            28.7057286919      -20.5888756684       19.2534371947  MEMB      68              0.0000000000
      8320        68  PYPG      H12A           27.9178209133      -20.9653140988       19.9388153448  MEMB      68              0.0000000000
      8321        68  PYPG      OC2            29.2795949623      -19.4159222307       19.8141850974  MEMB      68              0.0000000000
      8322        68  PYPG      HO2            29.7603907890      -19.7142250986       20.5886119468  MEMB      68              0.0000000000
      8323        68  PYPG      C11            29.8388958358      -21.6477917474       19.2084111009  MEMB      68              0.0000000000
      8324        68  PYPG      H11A           30.2024093589      -21.7594881085       20.2607913669  MEMB      68              0.0000000000
      8325        68  PYPG      H11B           30.6818026369      -21.2349361726       18.6129389418  MEMB      68              0.0000000000
      8326        68  PYPG      P              29.6333396299      -24.3115591922       19.3006550681  MEMB      68              0.0000000000
      8327        68  PYPG      O13            28.5546291531      -25.2452020415       18.9158240358  MEMB      68              0.0000000000
      8328        68  PYPG      O14            29.7699303746      -24.0267044381       20.7446966243  MEMB      68              0.0000000000
      8329        68  PYPG      O11            31.0114181462      -24.8099391234       18.7117223352  MEMB      68              0.0000000000
      8330        68  PYPG      O12            29.4163188747      -22.8880887133       18.6337637438  MEMB      68              0.0000000000
      8331        68  PYPG      C1             32.1785257325      -24.0010867619       18.7644350626  MEMB      68              0.0000000000
      8332        68  PYPG      HA             33.0492576333      -24.6612716265       18.9698191394  MEMB      68              0.0000000000
      8333        68  PYPG      HB             32.1396528545      -23.2327054674       19.5720439102  MEMB      68              0.0000000000
      8334        68  PYPG      C2             32.4682567851      -23.3454334589       17.4023792986  MEMB      68              0.0000000000
      8335        68  PYPG      HS             31.6093490503      -22.6886623271       17.1307419314  MEMB      68              0.0000000000
      8336        68  PYPG      O21            32.6197095756      -24.4106211215       16.4387797319  MEMB      68              0.0000000000
      8337        68  PYPG      C21            32.1191949617      -24.1975782218       15.2376803690  MEMB      68              0.0000000000
      8338        68  PYPG      O22            31.6255449755      -23.1712264258       14.8152342834  MEMB      68              0.0000000000
      8339        68  PYPG      C22            32.5315162068      -25.3419132406       14.3282675020  MEMB      68              0.0000000000
      8340        68  PYPG      H2R            33.4553073294      -25.7756328712       14.7809066273  MEMB      68              0.0000000000
      8341        68  PYPG      H2S            32.7353871414      -24.7998545870       13.3745756656  MEMB      68              0.0000000000
      8342        68  PYPG      C3             33.7489221993      -22.4644400314       17.5421997851  MEMB      68              0.0000000000
      8343        68  PYPG      HX             34.6288063480      -23.0353862807       17.9036763670  MEMB      68              0.0000000000
      8344        68  PYPG      HY             33.5688255165      -21.6948801701       18.3214743658  MEMB      68              0.0000000000
      8345        68  PYPG      O31            33.9992386122      -21.7885251759       16.3168997991  MEMB      68              0.0000000000
      8346        68  PYPG      C31            34.6270674397      -22.5010442142       15.4242275961  MEMB      68              0.0000000000
      8347        68  PYPG      O32            35.3497475415      -23.4627948535       15.5713439080  MEMB      68              0.0000000000
      8348        68  PYPG      C32            34.1441311163      -22.0829098516       14.0771144872  MEMB      68              0.0000000000
      8349        68  PYPG      H2X            33.9900541435      -22.9937877632       13.4537382902  MEMB      68              0.0000000000
      8350        68  PYPG      H2Y            33.3594151108      -21.3128391261       14.0453135855  MEMB      68              0.0000000000
      8351        68  PYPG      C23            31.5462467504      -26.4576761595       13.9263784161  MEMB      68              0.0000000000
      8352        68  PYPG      H3R            31.2918979924      -26.9952984255       14.8606424060  MEMB      68              0.0000000000
      8353        68  PYPG      H3S            32.0375759707      -27.1756019956       13.2253361020  MEMB      68              0.0000000000
      8354        68  PYPG      C24            30.3367267634      -25.8413405723       13.2171562100  MEMB      68              0.0000000000
      8355        68  PYPG      H4R            30.6732915502      -25.1834380581       12.3794319779  MEMB      68              0.0000000000
      8356        68  PYPG      H4S            29.8371187244      -25.2190250844       13.9928148467  MEMB      68              0.0000000000
      8357        68  PYPG      C25            29.2559016653      -26.7736016352       12.6475413856  MEMB      68              0.0000000000
      8358        68  PYPG      H5R            29.1439176822      -27.6763409146       13.2893961718  MEMB      68              0.0000000000
      8359        68  PYPG      H5S            29.5679627069      -27.1393870460       11.6439338684  MEMB      68              0.0000000000
      8360        68  PYPG      C26            27.9001802351      -26.0281372362       12.5294459813  MEMB      68              0.0000000000
      8361        68  PYPG      H6R            27.4880589591      -25.8577711259       13.5501252125  MEMB      68              0.0000000000
      8362        68  PYPG      H6S            27.1786796799      -26.6563015701       11.9594079881  MEMB      68              0.0000000000
      8363        68  PYPG      C27            27.9594194614      -24.6381261630       11.8598217697  MEMB      68              0.0000000000
      8364        68  PYPG      H7R            28.7257742166      -24.0067308956       12.3573673954  MEMB      68              0.0000000000
      8365        68  PYPG      H7S            27.0066655556      -24.0984540950       12.0498511716  MEMB      68              0.0000000000
      8366        68  PYPG      C28            28.1290140373      -24.7653917209       10.3343975181  MEMB      68              0.0000000000
      8367        68  PYPG      H8R            27.6179996994      -25.7126404634       10.0347862737  MEMB      68              0.0000000000
      8368        68  PYPG      H8S            29.2011069359      -24.9443467085       10.1049310034  MEMB      68              0.0000000000
      8369        68  PYPG      C29            27.5706352524      -23.6281866681        9.5056836218  MEMB      68              0.0000000000
      8370        68  PYPG      H9R            27.2939631192      -22.6932333514       10.0192302656  MEMB      68              0.0000000000
      8371        68  PYPG      C210           27.3972555571      -23.7168258367        8.1781666777  MEMB      68              0.0000000000
      8372        68  PYPG      H10R           26.9799729792      -22.8503657889        7.6337920298  MEMB      68              0.0000000000
      8373        68  PYPG      C211           27.7486411577      -24.9586665795        7.3830507631  MEMB      68              0.0000000000
      8374        68  PYPG      H11R           26.8462719359      -25.5592537942        7.1442760831  MEMB      68              0.0000000000
      8375        68  PYPG      H11S           28.4089320555      -25.6391644603        7.9694040849  MEMB      68              0.0000000000
      8376        68  PYPG      C212           28.5626154205      -24.6430558948        6.1217253095  MEMB      68              0.0000000000
      8377        68  PYPG      H12R           29.6278588081      -24.5645287021        6.4445258072  MEMB      68              0.0000000000
      8378        68  PYPG      H12S           28.2763007717      -23.6664780291        5.6758875878  MEMB      68              0.0000000000
      8379        68  PYPG      C213           28.5453271216      -25.7188285768        5.0311987221  MEMB      68              0.0000000000
      8380        68  PYPG      H13R           27.5614949883      -25.7818730970        4.5137165536  MEMB      68              0.0000000000
      8381        68  PYPG      H13S           28.7260672913      -26.7135221202        5.4916221147  MEMB      68              0.0000000000
      8382        68  PYPG      C214           29.6473847459      -25.3620480235        4.0298463751  MEMB      68              0.0000000000
      8383        68  PYPG      H14R           29.4314166887      -24.3348830664        3.6448248300  MEMB      68              0.0000000000
      8384        68  PYPG      H14S           30.6283860188      -25.2904320776        4.4915862127  MEMB      68              0.0000000000
      8385        68  PYPG      C215           29.8208906690      -26.3493352253        2.8956503221  MEMB      68              0.0000000000
      8386        68  PYPG      H15R           30.6097969703      -26.0764611030        2.1606581394  MEMB      68              0.0000000000
      8387        68  PYPG      H15S           28.8942683878      -26.1993728066        2.4336536073  MEMB      68              0.0000000000
      8388        68  PYPG      C216           29.6330704085      -27.8368722456        3.0551734051  MEMB      68              0.0000000000
      8389        68  PYPG      H16R           28.5615758253      -28.1134877055        3.2252632226  MEMB      68              0.0000000000
      8390        68  PYPG      H16S           30.2558885846      -28.1024149994        3.9169349630  MEMB      68              0.0000000000
      8391        68  PYPG      H16T           29.9554026895      -28.3250213637        2.1081067810  MEMB      68              0.0000000000
      8392        68  PYPG      C33            35.2084697081      -21.4416633524       13.3677039254  MEMB      68              0.0000000000
      8393        68  PYPG      H3X            36.0894650853      -21.9682163923       13.7131675472  MEMB      68              0.0000000000
      8394        68  PYPG      H3Y            35.3153437831      -20.3556950594       13.6305968002  MEMB      68              0.0000000000
      8395        68  PYPG      C34            34.9462447628      -21.7280755569       11.9213071721  MEMB      68              0.0000000000
      8396        68  PYPG      H4X            34.9521242802      -22.6811862602       11.4285745130  MEMB      68              0.0000000000
      8397        68  PYPG      H4Y            35.9201396387      -21.9275829307       11.4636664214  MEMB      68              0.0000000000
      8398        68  PYPG      C35            33.9808205227      -20.6511260985       11.3872337879  MEMB      68              0.0000000000
      8399        68  PYPG      H5X            34.1324551670      -19.5798466034       11.6990436571  MEMB      68              0.0000000000
      8400        68  PYPG      H5Y            32.9772046382      -20.9278810824       11.6750824588  MEMB      68              0.0000000000
      8401        68  PYPG      C36            34.0761456882      -20.5469027363        9.9221282930  MEMB      68              0.0000000000
      8402        68  PYPG      H6X            34.5259943653      -21.5130997836        9.5957402918  MEMB      68              0.0000000000
      8403        68  PYPG      H6Y            34.6317715450      -19.5686345566        9.8181566640  MEMB      68              0.0000000000
      8404        68  PYPG      C37            32.9241059265      -20.4675797503        9.0382479958  MEMB      68              0.0000000000
      8405        68  PYPG      H7X            32.3292725973      -21.3277794899        9.3907710003  MEMB      68              0.0000000000
      8406        68  PYPG      H7Y            32.5045337578      -19.4703999045        9.2731498591  MEMB      68              0.0000000000
      8407        68  PYPG      C38            33.2476916530      -20.5980200504        7.5446942285  MEMB      68              0.0000000000
      8408        68  PYPG      H8X            34.0239876096      -19.9182342208        7.1267192351  MEMB      68              0.0000000000
      8409        68  PYPG      H8Y            32.2644772058      -20.2603789761        7.1713583180  MEMB      68              0.0000000000
      8410        68  PYPG      C39            33.4852958563      -22.0079010319        7.0072494907  MEMB      68              0.0000000000
      8411        68  PYPG      H9X            34.3566075896      -22.4495459958        7.5424920699  MEMB      68              0.0000000000
      8412        68  PYPG      H9Y            33.7711692489      -21.9656588944        5.9262682675  MEMB      68              0.0000000000
      8413        68  PYPG      C310           32.2044154907      -22.8544616498        7.1573820817  MEMB      68              0.0000000000
      8414        68  PYPG      H10X           31.4705755519      -22.5886360635        6.3751478961  MEMB      68              0.0000000000
      8415        68  PYPG      H10Y           31.7902553439      -22.7680897085        8.1817732669  MEMB      68              0.0000000000
      8416        68  PYPG      C311           32.4459453706      -24.3119392965        6.9545779850  MEMB      68              0.0000000000
      8417        68  PYPG      H11X           31.7411890412      -25.1098735940        7.1959652207  MEMB      68              0.0000000000
      8418        68  PYPG      H11Y           33.1056641124      -24.4093961326        7.8641937476  MEMB      68              0.0000000000
      8419        68  PYPG      C312           32.8871063997      -24.5251837909        5.4695532167  MEMB      68              0.0000000000
      8420        68  PYPG      H12X           32.3686080038      -23.9502689370        4.6994418183  MEMB      68              0.0000000000
      8421        68  PYPG      H12Y           33.8678707185      -23.9894317858        5.4183530727  MEMB      68              0.0000000000
      8422        68  PYPG      C313           32.8176548092      -25.9740682542        4.8305839681  MEMB      68              0.0000000000
      8423        68  PYPG      H13X           33.3325906265      -26.6672103522        5.4181737406  MEMB      68              0.0000000000
      8424        68  PYPG      H13Y           32.0686182759      -26.6890081403        5.1806937386  MEMB      68              0.0000000000
      8425        68  PYPG      C314           33.4347492855      -26.1554477725        3.3881160510  MEMB      68              0.0000000000
      8426        68  PYPG      H14X           33.3654986482      -27.2073129181        3.0816368956  MEMB      68              0.0000000000
      8427        68  PYPG      H14Y           32.7028455334      -25.5704396534        2.8196306171  MEMB      68              0.0000000000
      8428        68  PYPG      C315           34.8000585416      -25.5770012761        2.9372641298  MEMB      68              0.0000000000
      8429        68  PYPG      H15X           35.7273743113      -25.6900214703        3.5861928252  MEMB      68              0.0000000000
      8430        68  PYPG      H15Y           35.3610747510      -25.9507306788        2.0322531282  MEMB      68              0.0000000000
      8431        68  PYPG      C316           34.4507981078      -24.2109983580        2.7423011657  MEMB      68              0.0000000000
      8432        68  PYPG      H16X           34.1974849040      -23.8910032587        1.7294247059  MEMB      68              0.0000000000
      8433        68  PYPG      H16Y           35.5100233590      -24.1645152786        2.8307504077  MEMB      68              0.0000000000
      8434        68  PYPG      H16Z           34.2072744281      -23.4955831045        3.5411646045  MEMB      68              0.0000000000
      8435        69  PMPE      N              -4.0237309713       40.4608340873       19.5194545732  MEMB      69              0.0000000000
      8436        69  PMPE      HN1            -3.2497079155       40.0301960291       20.0601675848  MEMB      69              0.0000000000
      8437        69  PMPE      HN2            -3.5906197632       40.9084974071       18.6767686084  MEMB      69              0.0000000000
      8438        69  PMPE      HN3            -4.3219904390       41.3887065399       19.9330651743  MEMB      69              0.0000000000
      8439        69  PMPE      C12            -5.1115531400       39.7016934417       19.0336632549  MEMB      69              0.0000000000
      8440        69  PMPE      H12A           -5.6692814445       40.4178138649       18.3721196497  MEMB      69              0.0000000000
      8441        69  PMPE      H12B           -5.6712721292       39.4450610738       19.9581837502  MEMB      69              0.0000000000
      8442        69  PMPE      C11            -4.4508298098       38.5496472630       18.2927500858  MEMB      69              0.0000000000
      8443        69  PMPE      H11A           -3.8610720512       38.8983177663       17.4078165050  MEMB      69              0.0000000000
      8444        69  PMPE      H11B           -5.3287437834       37.9806768030       17.9249778961  MEMB      69              0.0000000000
      8445        69  PMPE      P              -3.7433414737       36.1690738612       19.0914024140  MEMB      69              0.0000000000
      8446        69  PMPE      O13            -5.0970792859       35.8617327038       19.5598161081  MEMB      69              0.0000000000
      8447        69  PMPE      O14            -2.5827680300       35.5664026967       19.7768931456  MEMB      69              0.0000000000
      8448        69  PMPE      O11            -3.6547614821       35.8439366132       17.5873951379  MEMB      69              0.0000000000
      8449        69  PMPE      O12            -3.5863945839       37.7599120541       19.1330600412  MEMB      69              0.0000000000
      8450        69  PMPE      C1             -2.5144382156       36.4483919013       17.0055631648  MEMB      69              0.0000000000
      8451        69  PMPE      HA             -1.5272521798       36.1135301694       17.4392123313  MEMB      69              0.0000000000
      8452        69  PMPE      HB             -2.5176269350       37.5416428415       16.9104548228  MEMB      69              0.0000000000
      8453        69  PMPE      C2             -2.5265489052       36.0529909845       15.6205756142  MEMB      69              0.0000000000
      8454        69  PMPE      HS             -1.8553311867       36.7810839273       15.1301444614  MEMB      69              0.0000000000
      8455        69  PMPE      O21            -3.7532914684       35.9111969866       14.9202434355  MEMB      69              0.0000000000
      8456        69  PMPE      C21            -4.1503052928       37.0812287311       14.6026447751  MEMB      69              0.0000000000
      8457        69  PMPE      O22            -3.5543934191       38.1442545378       14.7177550068  MEMB      69              0.0000000000
      8458        69  PMPE      C22            -5.4551788379       36.8668437539       13.9440057615  MEMB      69              0.0000000000
      8459        69  PMPE      H2R            -6.2307654064       36.8646838770       14.7511006699  MEMB      69              0.0000000000
      8460        69  PMPE      H2S            -5.5744276557       35.8905535425       13.4394604374  MEMB      69              0.0000000000
      8461        69  PMPE      C3             -1.9376064742       34.7479278996       15.7523617694  MEMB      69              0.0000000000
      8462        69  PMPE      HX             -2.6409828595       34.0690008920       16.3058239610  MEMB      69              0.0000000000
      8463        69  PMPE      HY             -0.9347695813       34.7020296590       16.2342187311  MEMB      69              0.0000000000
      8464        69  PMPE      O31            -1.8075848849       34.2107467151       14.5062972007  MEMB      69              0.0000000000
      8465        69  PMPE      C31            -1.2824478260       34.8473954055       13.7211069166  MEMB      69              0.0000000000
      8466        69  PMPE      O32            -0.5833858091       35.8489941831       13.9302857422  MEMB      69              0.0000000000
      8467        69  PMPE      C32            -1.5792309883       34.3932581905       12.3494607268  MEMB      69              0.0000000000
      8468        69  PMPE      H2X            -1.7744395669       33.2660470862       11.9211381271  MEMB      69              0.0000000000
      8469        69  PMPE      H2Y            -0.7031724805       33.7818388486       12.2983069758  MEMB      69              0.0000000000
      8470        69  PMPE      C23            -5.6247388913       38.0804717095       13.0462583606  MEMB      69              0.0000000000
      8471        69  PMPE      H3R            -5.6242658229       38.9633921334       13.7343739650  MEMB      69              0.0000000000
      8472        69  PMPE      H3S            -6.5811771122       37.8019169708       12.6021580454  MEMB      69              0.0000000000
      8473        69  PMPE      C24            -4.9250520742       38.5934465149       11.8289680672  MEMB      69              0.0000000000
      8474        69  PMPE      H4R            -4.6960319902       37.7924504142       11.1485274484  MEMB      69              0.0000000000
      8475        69  PMPE      H4S            -4.0307193189       39.1027362031       12.2408221214  MEMB      69              0.0000000000
      8476        69  PMPE      C25            -5.7936063517       39.5230979377       10.9553805733  MEMB      69              0.0000000000
      8477        69  PMPE      H5R            -5.8641346290       40.4971712624       11.4401160179  MEMB      69              0.0000000000
      8478        69  PMPE      H5S            -6.8551137124       39.2464113814       10.8340602344  MEMB      69              0.0000000000
      8479        69  PMPE      C26            -5.2802709765       39.5885820938        9.5166366163  MEMB      69              0.0000000000
      8480        69  PMPE      H6R            -5.3364752478       38.5710235174        9.0900066029  MEMB      69              0.0000000000
      8481        69  PMPE      H6S            -4.2257390546       39.9735209075        9.5298984949  MEMB      69              0.0000000000
      8482        69  PMPE      C27            -6.1935686397       40.4365530949        8.6293743095  MEMB      69              0.0000000000
      8483        69  PMPE      H7R            -6.0291510325       41.4681155992        8.8458336731  MEMB      69              0.0000000000
      8484        69  PMPE      H7S            -7.2500128359       40.4616072864        8.8899363964  MEMB      69              0.0000000000
      8485        69  PMPE      C28            -5.9804673365       40.3291565960        7.1421253755  MEMB      69              0.0000000000
      8486        69  PMPE      H8R            -6.4245458960       41.2640492283        6.7372269860  MEMB      69              0.0000000000
      8487        69  PMPE      H8S            -6.5949186492       39.5406657515        6.7131677873  MEMB      69              0.0000000000
      8488        69  PMPE      C29            -4.5007307563       40.1252699158        6.8774818053  MEMB      69              0.0000000000
      8489        69  PMPE      H9R            -4.0068539482       39.1546326100        7.0601071888  MEMB      69              0.0000000000
      8490        69  PMPE      C217           -3.5182945136       41.2761824299        6.8340481930  MEMB      69              0.0000000000
      8491        69  PMPE      H17R           -2.6330831444       41.0773779215        7.3564247216  MEMB      69              0.0000000000
      8492        69  PMPE      H17S           -3.6186398166       42.2238860001        6.3909600130  MEMB      69              0.0000000000
      8493        69  PMPE      C210           -4.0954120344       40.6601845447        5.5975188074  MEMB      69              0.0000000000
      8494        69  PMPE      H10R           -3.2883595258       40.0644699667        5.1519903569  MEMB      69              0.0000000000
      8495        69  PMPE      C211           -5.1189308528       41.6172875849        4.8482008935  MEMB      69              0.0000000000
      8496        69  PMPE      H11R           -4.9360853582       42.4197211321        4.0899599719  MEMB      69              0.0000000000
      8497        69  PMPE      H11S           -5.6453156871       42.4167950087        5.3332605907  MEMB      69              0.0000000000
      8498        69  PMPE      C212           -5.6667853180       40.8151048554        3.7927080225  MEMB      69              0.0000000000
      8499        69  PMPE      H12R           -6.5755268118       41.2488884336        4.0072444436  MEMB      69              0.0000000000
      8500        69  PMPE      H12S           -5.6757846957       39.7837902352        4.2154596789  MEMB      69              0.0000000000
      8501        69  PMPE      C213           -5.3421546274       41.1838256348        2.2795428499  MEMB      69              0.0000000000
      8502        69  PMPE      H13R           -4.6380486072       40.4293564719        2.4035080361  MEMB      69              0.0000000000
      8503        69  PMPE      H13S           -4.9399650852       42.0843285278        1.8517493975  MEMB      69              0.0000000000
      8504        69  PMPE      C214           -5.7568012878       40.5576407941        0.9731674586  MEMB      69              0.0000000000
      8505        69  PMPE      H14R           -6.7621944874       40.8302904924        0.6084598826  MEMB      69              0.0000000000
      8506        69  PMPE      H14S           -5.6996106140       39.5559808917        1.2962144236  MEMB      69              0.0000000000
      8507        69  PMPE      C215           -5.1011919630       40.5677436137       -0.3050406802  MEMB      69              0.0000000000
      8508        69  PMPE      H15R           -4.2971078615       39.8764491075       -0.6539010169  MEMB      69              0.0000000000
      8509        69  PMPE      H15S           -5.4485910913       41.5346716038       -0.7432240283  MEMB      69              0.0000000000
      8510        69  PMPE      C216           -5.8455977328       39.6211141448       -0.9503264444  MEMB      69              0.0000000000
      8511        69  PMPE      H16R           -6.7973371518       40.1205389020       -1.0358373663  MEMB      69              0.0000000000
      8512        69  PMPE      H16S           -6.1014607158       39.9672924088       -1.7968649733  MEMB      69              0.0000000000
      8513        69  PMPE      H16T           -5.9150926118       38.4991500482       -0.8575094478  MEMB      69              0.0000000000
      8514        69  PMPE      C33            -2.4171643889       35.6145373163       11.9396939542  MEMB      69              0.0000000000
      8515        69  PMPE      H3X            -2.2291607051       35.2854710566       10.8563316390  MEMB      69              0.0000000000
      8516        69  PMPE      H3Y            -2.0597771732       36.8350541474       12.0875418173  MEMB      69              0.0000000000
      8517        69  PMPE      C34            -3.5990069432       35.9552242967       11.3087431005  MEMB      69              0.0000000000
      8518        69  PMPE      H4X            -3.1125082740       36.8184481147       10.8200366723  MEMB      69              0.0000000000
      8519        69  PMPE      H4Y            -3.7065526465       36.1048800166       12.4692091293  MEMB      69              0.0000000000
      8520        69  PMPE      C35            -4.7699677530       35.4208708566       10.6544004753  MEMB      69              0.0000000000
      8521        69  PMPE      H5X            -5.4623872982       35.2972053300       11.4744864347  MEMB      69              0.0000000000
      8522        69  PMPE      H5Y            -5.3860819401       34.5013548455       10.5824202612  MEMB      69              0.0000000000
      8523        69  PMPE      C36            -4.7114151201       35.6093179122        9.1116803275  MEMB      69              0.0000000000
      8524        69  PMPE      H6X            -3.9038622727       35.1609851081        8.4766381718  MEMB      69              0.0000000000
      8525        69  PMPE      H6Y            -4.4529873159       36.6526979957        8.9450382070  MEMB      69              0.0000000000
      8526        69  PMPE      C37            -5.8477073984       34.8352551123        8.4597856774  MEMB      69              0.0000000000
      8527        69  PMPE      H7X            -6.7249216817       35.0477071610        9.0962511640  MEMB      69              0.0000000000
      8528        69  PMPE      H7Y            -5.6959190237       33.7263116634        8.4528916278  MEMB      69              0.0000000000
      8529        69  PMPE      C38            -6.0178264711       35.2209537861        7.0296420798  MEMB      69              0.0000000000
      8530        69  PMPE      H8X            -6.9148881970       34.6584922695        6.6894921870  MEMB      69              0.0000000000
      8531        69  PMPE      H8Y            -5.1336339854       34.9142144100        6.4168402337  MEMB      69              0.0000000000
      8532        69  PMPE      C39            -6.2515846561       36.7150427479        6.9384774334  MEMB      69              0.0000000000
      8533        69  PMPE      H9X            -5.3128131243       37.2953216149        7.0816836045  MEMB      69              0.0000000000
      8534        69  PMPE      H9Y            -6.9789725824       37.0348258531        7.7134060135  MEMB      69              0.0000000000
      8535        69  PMPE      C310           -6.7911031302       37.0366432168        5.5854663084  MEMB      69              0.0000000000
      8536        69  PMPE      H10X           -6.9148426622       38.1313817129        5.4772097415  MEMB      69              0.0000000000
      8537        69  PMPE      H10Y           -7.7999073911       36.5812100605        5.4411592307  MEMB      69              0.0000000000
      8538        69  PMPE      C311           -5.8514194972       36.5149109106        4.5076604842  MEMB      69              0.0000000000
      8539        69  PMPE      H11X           -6.5047296324       36.8451139397        3.6771060732  MEMB      69              0.0000000000
      8540        69  PMPE      H11Y           -5.8283062801       35.4280427811        4.3516752335  MEMB      69              0.0000000000
      8541        69  PMPE      C312           -4.3628943887       37.0254400360        4.5625976422  MEMB      69              0.0000000000
      8542        69  PMPE      H12X           -3.9536471103       37.2132064048        5.5615813194  MEMB      69              0.0000000000
      8543        69  PMPE      H12Y           -4.4393096332       38.0970371043        4.3147999473  MEMB      69              0.0000000000
      8544        69  PMPE      C313           -3.3017788274       36.3372773966        3.5767829187  MEMB      69              0.0000000000
      8545        69  PMPE      H13X           -2.8861962582       35.5434751157        4.1990052041  MEMB      69              0.0000000000
      8546        69  PMPE      H13Y           -2.4971528048       37.0790945088        3.3655394008  MEMB      69              0.0000000000
      8547        69  PMPE      C314           -3.7482545001       35.4363474942        2.3480275514  MEMB      69              0.0000000000
      8548        69  PMPE      H14X           -3.9008961392       35.8269178257        1.3511973948  MEMB      69              0.0000000000
      8549        69  PMPE      H14Y           -4.7455629818       35.0295889536        2.4780557766  MEMB      69              0.0000000000
      8550        69  PMPE      C315           -2.9195153327       34.8969648045        1.2034792515  MEMB      69              0.0000000000
      8551        69  PMPE      H15X           -3.5093037461       34.0536765855        0.7968805581  MEMB      69              0.0000000000
      8552        69  PMPE      H15Y           -2.0607833335       34.7437523519        1.8677654050  MEMB      69              0.0000000000
      8553        69  PMPE      C316           -1.9440530873       35.5419844660        0.3097865982  MEMB      69              0.0000000000
      8554        69  PMPE      H16X           -1.0709220981       34.8447743431        0.2698098466  MEMB      69              0.0000000000
      8555        69  PMPE      H16Y           -1.8214479000       36.2904375734        1.0225682706  MEMB      69              0.0000000000
      8556        69  PMPE      H16Z           -2.0273621747       36.3373974564       -0.4239624469  MEMB      69              0.0000000000
      8557        70  PMPE      N              31.6648452526       18.6477519624       20.4471304115  MEMB      70              0.0000000000
      8558        70  PMPE      HN1            31.8844505397       19.2011010134       19.5970582361  MEMB      70              0.0000000000
      8559        70  PMPE      HN2            31.0564975865       19.1801995055       21.1052083783  MEMB      70              0.0000000000
      8560        70  PMPE      HN3            32.5514503339       18.3402083544       20.8928741306  MEMB      70              0.0000000000
      8561        70  PMPE      C12            30.9846308446       17.3906033985       20.0094932838  MEMB      70              0.0000000000
      8562        70  PMPE      H12A           29.9623366654       17.6408304699       19.6604879548  MEMB      70              0.0000000000
      8563        70  PMPE      H12B           30.9628639315       16.7513729538       20.9074710295  MEMB      70              0.0000000000
      8564        70  PMPE      C11            31.8209895713       16.7067704106       18.9244702055  MEMB      70              0.0000000000
      8565        70  PMPE      H11A           31.8469024036       17.3951663148       18.0467212633  MEMB      70              0.0000000000
      8566        70  PMPE      H11B           31.3386702600       15.7489246095       18.6135817643  MEMB      70              0.0000000000
      8567        70  PMPE      P              34.3022053532       15.9828717339       18.4684255120  MEMB      70              0.0000000000
      8568        70  PMPE      O13            33.7707776167       15.1623117860       17.3724966984  MEMB      70              0.0000000000
      8569        70  PMPE      O14            35.4031587434       15.4544711062       19.3166909208  MEMB      70              0.0000000000
      8570        70  PMPE      O11            34.7786089055       17.3558019223       17.9167432200  MEMB      70              0.0000000000
      8571        70  PMPE      O12            33.1280870596       16.4496147601       19.4347104455  MEMB      70              0.0000000000
      8572        70  PMPE      C1             35.3179465903       18.4061423389       18.6958925675  MEMB      70              0.0000000000
      8573        70  PMPE      HA             36.2322634196       18.0783772801       19.2509004964  MEMB      70              0.0000000000
      8574        70  PMPE      HB             34.5637767751       18.8044743922       19.3945037704  MEMB      70              0.0000000000
      8575        70  PMPE      C2             35.7329244620       19.5429405037       17.7364418493  MEMB      70              0.0000000000
      8576        70  PMPE      HS             35.7571413402       20.5218622470       18.2643456630  MEMB      70              0.0000000000
      8577        70  PMPE      O21            34.9162953284       19.6535833517       16.5764081258  MEMB      70              0.0000000000
      8578        70  PMPE      C21            33.6340618497       19.7932079988       16.7413166943  MEMB      70              0.0000000000
      8579        70  PMPE      O22            33.0461088443       20.1122681765       17.7701814817  MEMB      70              0.0000000000
      8580        70  PMPE      C22            32.9536336810       19.4243844417       15.4161595005  MEMB      70              0.0000000000
      8581        70  PMPE      H2R            31.8789452220       19.6874172656       15.4744255298  MEMB      70              0.0000000000
      8582        70  PMPE      H2S            33.0216511985       18.3194627631       15.3098054906  MEMB      70              0.0000000000
      8583        70  PMPE      C3             37.1436412384       19.2087735692       17.2461496179  MEMB      70              0.0000000000
      8584        70  PMPE      HX             37.7802934928       19.1801303121       18.1318357080  MEMB      70              0.0000000000
      8585        70  PMPE      HY             37.4309757838       20.0457538422       16.5804196559  MEMB      70              0.0000000000
      8586        70  PMPE      O31            37.2233906021       17.8849735318       16.6812337014  MEMB      70              0.0000000000
      8587        70  PMPE      C31            37.5117487555       17.8759069205       15.3933583179  MEMB      70              0.0000000000
      8588        70  PMPE      O32            37.9676719222       18.8053443865       14.7605357056  MEMB      70              0.0000000000
      8589        70  PMPE      C32            37.2787698954       16.4674652839       14.8425222472  MEMB      70              0.0000000000
      8590        70  PMPE      H2X            36.2268049294       16.1650094104       15.0476050379  MEMB      70              0.0000000000
      8591        70  PMPE      H2Y            37.9685051427       15.7596403186       15.3443773542  MEMB      70              0.0000000000
      8592        70  PMPE      C23            33.6499375109       20.0819450324       14.1964209454  MEMB      70              0.0000000000
      8593        70  PMPE      H3R            34.7065195979       19.7318418402       14.1059583413  MEMB      70              0.0000000000
      8594        70  PMPE      H3S            33.6743889926       21.1870231422       14.3165539128  MEMB      70              0.0000000000
      8595        70  PMPE      C24            32.9565186030       19.7892802616       12.8642124187  MEMB      70              0.0000000000
      8596        70  PMPE      H4R            31.9013840344       20.1300400860       12.9523856313  MEMB      70              0.0000000000
      8597        70  PMPE      H4S            32.9503354762       18.6872454763       12.6878509764  MEMB      70              0.0000000000
      8598        70  PMPE      C25            33.6160497994       20.5703962320       11.7131783916  MEMB      70              0.0000000000
      8599        70  PMPE      H5R            34.6598578643       20.2124152999       11.5695287680  MEMB      70              0.0000000000
      8600        70  PMPE      H5S            33.6691083700       21.6404182764       12.0139569072  MEMB      70              0.0000000000
      8601        70  PMPE      C26            32.8165633424       20.5086390976       10.4052880753  MEMB      70              0.0000000000
      8602        70  PMPE      H6R            31.7912795727       20.8858626988       10.6311957259  MEMB      70              0.0000000000
      8603        70  PMPE      H6S            32.6802079036       19.4471442496       10.1054496363  MEMB      70              0.0000000000
      8604        70  PMPE      C27            33.4206816239       21.3206204113        9.2360045548  MEMB      70              0.0000000000
      8605        70  PMPE      H7R            34.4717480561       21.0810965701        8.9971537010  MEMB      70              0.0000000000
      8606        70  PMPE      H7S            33.3414326834       22.4200183161        9.3950460446  MEMB      70              0.0000000000
      8607        70  PMPE      C28            32.7473456835       21.0254751667        7.9349505412  MEMB      70              0.0000000000
      8608        70  PMPE      H8R            32.6072506266       19.9149341931        7.8071409979  MEMB      70              0.0000000000
      8609        70  PMPE      H8S            33.3106495245       21.3716589118        7.0508571446  MEMB      70              0.0000000000
      8610        70  PMPE      C29            31.5661851151       21.9264495815        7.8799481991  MEMB      70              0.0000000000
      8611        70  PMPE      H9R            31.3423583529       22.8360994024        8.3248735799  MEMB      70              0.0000000000
      8612        70  PMPE      C217           30.4411667308       21.2660189208        8.4304384412  MEMB      70              0.0000000000
      8613        70  PMPE      H17R           29.4159548309       21.4035988224        8.7259118543  MEMB      70              0.0000000000
      8614        70  PMPE      H17S           30.5516102831       20.3114424214        8.8724992785  MEMB      70              0.0000000000
      8615        70  PMPE      C210           30.8108430652       21.6418819144        6.7312860143  MEMB      70              0.0000000000
      8616        70  PMPE      H10R           29.9453097877       22.2361278962        6.3683262555  MEMB      70              0.0000000000
      8617        70  PMPE      C211           31.5320517205       20.5787328684        5.5784523853  MEMB      70              0.0000000000
      8618        70  PMPE      H11R           30.9703578477       19.7246882799        5.1818336287  MEMB      70              0.0000000000
      8619        70  PMPE      H11S           31.9728442450       19.6121477097        5.8744830706  MEMB      70              0.0000000000
      8620        70  PMPE      C212           31.8505808510       20.9905565230        4.2382220856  MEMB      70              0.0000000000
      8621        70  PMPE      H12R           32.6866593811       21.5222692738        4.7185766759  MEMB      70              0.0000000000
      8622        70  PMPE      H12S           31.0590991637       21.6053993987        3.7560565880  MEMB      70              0.0000000000
      8623        70  PMPE      C213           32.3242559704       19.7935994073        3.4270365060  MEMB      70              0.0000000000
      8624        70  PMPE      H13R           31.5003872857       19.3028988831        2.8604353893  MEMB      70              0.0000000000
      8625        70  PMPE      H13S           32.7793679320       18.9906188995        4.0610276463  MEMB      70              0.0000000000
      8626        70  PMPE      C214           33.3315968685       20.4815256739        2.5724322879  MEMB      70              0.0000000000
      8627        70  PMPE      H14R           34.1518973249       20.8818334902        3.1972846051  MEMB      70              0.0000000000
      8628        70  PMPE      H14S           32.7763858225       21.3506582088        2.1259359193  MEMB      70              0.0000000000
      8629        70  PMPE      C215           33.9940497752       19.5515427813        1.6228651032  MEMB      70              0.0000000000
      8630        70  PMPE      H15R           33.2508902358       18.9119952955        1.2088721605  MEMB      70              0.0000000000
      8631        70  PMPE      H15S           34.3909733110       18.6206918625        2.0249721959  MEMB      70              0.0000000000
      8632        70  PMPE      C216           34.8902257103       20.2568870634        0.6169283473  MEMB      70              0.0000000000
      8633        70  PMPE      H16R           35.7051527554       20.7430653822        1.1852384241  MEMB      70              0.0000000000
      8634        70  PMPE      H16S           35.2632001556       19.4585025736       -0.0555332383  MEMB      70              0.0000000000
      8635        70  PMPE      H16T           34.3588937265       21.0149026082       -0.0181988412  MEMB      70              0.0000000000
      8636        70  PMPE      C33            37.5000940446       16.4996663168       13.3169326490  MEMB      70              0.0000000000
      8637        70  PMPE      H3X            38.5667068951       16.7135398104       13.0813293182  MEMB      70              0.0000000000
      8638        70  PMPE      H3Y            36.9208253270       17.3710179841       12.9333919447  MEMB      70              0.0000000000
      8639        70  PMPE      C34            36.9802458416       15.2562846060       12.5841856988  MEMB      70              0.0000000000
      8640        70  PMPE      H4X            36.3201471954       14.6636578311       13.2597456917  MEMB      70              0.0000000000
      8641        70  PMPE      H4Y            37.8534694585       14.6093494913       12.3417253247  MEMB      70              0.0000000000
      8642        70  PMPE      C35            36.1970371757       15.5819655008       11.2884099894  MEMB      70              0.0000000000
      8643        70  PMPE      H5X            35.8399612398       14.6224053844       10.8538449602  MEMB      70              0.0000000000
      8644        70  PMPE      H5Y            36.9031857712       16.0268731277       10.5549732195  MEMB      70              0.0000000000
      8645        70  PMPE      C36            34.9875388023       16.5352892794       11.4505055237  MEMB      70              0.0000000000
      8646        70  PMPE      H6X            35.3370712581       17.5907034839       11.5189809290  MEMB      70              0.0000000000
      8647        70  PMPE      H6Y            34.4410092967       16.2764897084       12.3872336019  MEMB      70              0.0000000000
      8648        70  PMPE      C37            33.9690525678       16.5047988104       10.2986443135  MEMB      70              0.0000000000
      8649        70  PMPE      H7X            33.1371206360       17.2073331739       10.5502686781  MEMB      70              0.0000000000
      8650        70  PMPE      H7Y            33.5410489439       15.4808662853       10.2557275639  MEMB      70              0.0000000000
      8651        70  PMPE      C38            34.5659961803       16.9391100070        8.9528017296  MEMB      70              0.0000000000
      8652        70  PMPE      H8X            35.4869956833       16.3607870332        8.7271713463  MEMB      70              0.0000000000
      8653        70  PMPE      H8Y            34.8446983436       18.0168651655        9.0251554226  MEMB      70              0.0000000000
      8654        70  PMPE      C39            33.6201035756       16.7446774051        7.7686548947  MEMB      70              0.0000000000
      8655        70  PMPE      H9X            33.9874001671       17.3846477733        6.9304061522  MEMB      70              0.0000000000
      8656        70  PMPE      H9Y            32.5970339039       17.0876697926        8.0408224448  MEMB      70              0.0000000000
      8657        70  PMPE      C310           33.5558337592       15.2855457844        7.3002243836  MEMB      70              0.0000000000
      8658        70  PMPE      H10X           33.0508804190       14.6657852206        8.0759100430  MEMB      70              0.0000000000
      8659        70  PMPE      H10Y           34.5801751509       14.8638231729        7.1850820850  MEMB      70              0.0000000000
      8660        70  PMPE      C311           32.8584406133       15.1559979855        5.9427433572  MEMB      70              0.0000000000
      8661        70  PMPE      H11X           32.4891542660       14.1571145655        5.7857970062  MEMB      70              0.0000000000
      8662        70  PMPE      H11Y           33.6032082479       15.2670941488        5.1382433597  MEMB      70              0.0000000000
      8663        70  PMPE      C312           31.6466616281       16.0560304796        5.7428518975  MEMB      70              0.0000000000
      8664        70  PMPE      H12X           32.0179199510       17.1032525950        5.7414134927  MEMB      70              0.0000000000
      8665        70  PMPE      H12Y           30.9340231719       15.8936250541        6.5868419146  MEMB      70              0.0000000000
      8666        70  PMPE      C313           30.9542620851       15.9060052196        4.3911882769  MEMB      70              0.0000000000
      8667        70  PMPE      H13X           30.1481997971       16.6468917999        4.2875929499  MEMB      70              0.0000000000
      8668        70  PMPE      H13Y           30.4405253635       14.9381360209        4.3308879252  MEMB      70              0.0000000000
      8669        70  PMPE      C314           31.9642685849       16.0555698695        3.2534629264  MEMB      70              0.0000000000
      8670        70  PMPE      H14X           32.6489783626       15.1771898245        3.3275940335  MEMB      70              0.0000000000
      8671        70  PMPE      H14Y           32.5609432357       16.9825005603        3.3230098397  MEMB      70              0.0000000000
      8672        70  PMPE      C315           31.3671166237       15.9363556911        1.8703001673  MEMB      70              0.0000000000
      8673        70  PMPE      H15X           30.7841707135       14.9995036850        1.9930045896  MEMB      70              0.0000000000
      8674        70  PMPE      H15Y           32.1914469739       15.7876811055        1.1398069957  MEMB      70              0.0000000000
      8675        70  PMPE      C316           30.4070405559       17.0040171786        1.3470672399  MEMB      70              0.0000000000
      8676        70  PMPE      H16X           29.8622242881       16.7595089172        0.4133649717  MEMB      70              0.0000000000
      8677        70  PMPE      H16Y           30.8898661089       17.9701583131        1.1549288534  MEMB      70              0.0000000000
      8678        70  PMPE      H16Z           29.6220427727       17.0460971390        2.0949674972  MEMB      70              0.0000000000
      8679        71  PMPE      N             -31.3425622153      -24.2588499442       18.1908666106  MEMB      71              0.0000000000
      8680        71  PMPE      HN1           -31.0010442646      -23.2779403513       18.2676458109  MEMB      71              0.0000000000
      8681        71  PMPE      HN2           -31.0458048112      -24.6024107380       17.2559977700  MEMB      71              0.0000000000
      8682        71  PMPE      HN3           -32.3971725534      -24.2440561813       18.2539071034  MEMB      71              0.0000000000
      8683        71  PMPE      C12           -30.6310909190      -25.1028080644       19.2347215404  MEMB      71              0.0000000000
      8684        71  PMPE      H12A          -31.0699250618      -26.1207969598       19.2179619715  MEMB      71              0.0000000000
      8685        71  PMPE      H12B          -30.7908610738      -24.6462331481       20.2344825676  MEMB      71              0.0000000000
      8686        71  PMPE      C11           -29.1214895235      -25.2132430032       18.9385991711  MEMB      71              0.0000000000
      8687        71  PMPE      H11A          -28.9730795939      -25.5137486232       17.8739933842  MEMB      71              0.0000000000
      8688        71  PMPE      H11B          -28.7003366897      -26.0073377631       19.6045992582  MEMB      71              0.0000000000
      8689        71  PMPE      P             -26.8830523789      -23.8363879477       19.2130210843  MEMB      71              0.0000000000
      8690        71  PMPE      O13           -26.2956693232      -25.0246524221       19.8798188069  MEMB      71              0.0000000000
      8691        71  PMPE      O14           -26.6127803713      -22.4936759200       19.7584301890  MEMB      71              0.0000000000
      8692        71  PMPE      O11           -26.5670482760      -23.9285399841       17.6776797841  MEMB      71              0.0000000000
      8693        71  PMPE      O12           -28.4879918920      -23.9691176811       19.2009506831  MEMB      71              0.0000000000
      8694        71  PMPE      C1            -27.2831812185      -23.1005252149       16.7580421747  MEMB      71              0.0000000000
      8695        71  PMPE      HA            -27.0512529650      -22.0301883427       16.9742619352  MEMB      71              0.0000000000
      8696        71  PMPE      HB            -28.3799760736      -23.2312634064       16.8514400886  MEMB      71              0.0000000000
      8697        71  PMPE      C2            -26.7899777379      -23.4470336008       15.3327397257  MEMB      71              0.0000000000
      8698        71  PMPE      HS            -27.2088392875      -22.7698955178       14.5471457859  MEMB      71              0.0000000000
      8699        71  PMPE      O21           -27.0230222204      -24.7993639936       14.9776433402  MEMB      71              0.0000000000
      8700        71  PMPE      C21           -28.2491184058      -25.0997692419       14.8285318519  MEMB      71              0.0000000000
      8701        71  PMPE      O22           -29.2219288641      -24.3527360139       14.8047202896  MEMB      71              0.0000000000
      8702        71  PMPE      C22           -28.3116253455      -26.5733512406       14.7247688836  MEMB      71              0.0000000000
      8703        71  PMPE      H2R           -28.2798705045      -27.0651757785       15.7207360301  MEMB      71              0.0000000000
      8704        71  PMPE      H2S           -27.4840964387      -26.9941332689       14.1014595209  MEMB      71              0.0000000000
      8705        71  PMPE      C3            -25.2907443592      -23.2521642973       15.3326104635  MEMB      71              0.0000000000
      8706        71  PMPE      HX            -24.8155835081      -23.7312117118       16.2082776643  MEMB      71              0.0000000000
      8707        71  PMPE      HY            -25.1917411305      -22.1714572866       15.5363878565  MEMB      71              0.0000000000
      8708        71  PMPE      O31           -24.6477268600      -23.7902032486       14.1533408798  MEMB      71              0.0000000000
      8709        71  PMPE      C31           -24.7504496368      -23.0514646307       13.0689773744  MEMB      71              0.0000000000
      8710        71  PMPE      O32           -25.3506906789      -21.9909341106       12.9868209107  MEMB      71              0.0000000000
      8711        71  PMPE      C32           -23.9559006806      -23.6736272952       11.9273962551  MEMB      71              0.0000000000
      8712        71  PMPE      H2X           -23.8827832177      -24.7613551927       12.0782539175  MEMB      71              0.0000000000
      8713        71  PMPE      H2Y           -22.9003645338      -23.3219933586       11.9235761044  MEMB      71              0.0000000000
      8714        71  PMPE      C23           -29.6684389227      -26.7506583715       14.1001807481  MEMB      71              0.0000000000
      8715        71  PMPE      H3R           -30.5977271295      -26.4315094550       14.5436523115  MEMB      71              0.0000000000
      8716        71  PMPE      H3S           -29.7611212566      -27.7686231935       14.5502003295  MEMB      71              0.0000000000
      8717        71  PMPE      C24           -29.6615838215      -26.3050710328       12.5738569114  MEMB      71              0.0000000000
      8718        71  PMPE      H4R           -28.7181149926      -26.8040731239       12.2320785414  MEMB      71              0.0000000000
      8719        71  PMPE      H4S           -29.3788772710      -25.2753564616       12.4038005483  MEMB      71              0.0000000000
      8720        71  PMPE      C25           -30.9814818612      -26.3452097583       11.6331176075  MEMB      71              0.0000000000
      8721        71  PMPE      H5R           -31.8983671770      -25.9917049994       12.0956164197  MEMB      71              0.0000000000
      8722        71  PMPE      H5S           -31.4165726331      -27.2941614567       11.4243285247  MEMB      71              0.0000000000
      8723        71  PMPE      C26           -30.9386414774      -26.2391892535       10.0962007940  MEMB      71              0.0000000000
      8724        71  PMPE      H6R           -29.9113955620      -26.3980244341        9.7073723600  MEMB      71              0.0000000000
      8725        71  PMPE      H6S           -31.1411076846      -25.1892290745       10.2128222426  MEMB      71              0.0000000000
      8726        71  PMPE      C27           -32.0993655558      -26.8963599252        9.1799859340  MEMB      71              0.0000000000
      8727        71  PMPE      H7R           -33.0006993209      -27.0411825142        9.7685332638  MEMB      71              0.0000000000
      8728        71  PMPE      H7S           -32.2037679214      -27.9366264896        8.8086786447  MEMB      71              0.0000000000
      8729        71  PMPE      C28           -31.9144867288      -26.7728634060        7.6858881385  MEMB      71              0.0000000000
      8730        71  PMPE      H8R           -32.7023301180      -27.3203364220        7.1139647183  MEMB      71              0.0000000000
      8731        71  PMPE      H8S           -30.8998626168      -27.1410847705        7.3677311998  MEMB      71              0.0000000000
      8732        71  PMPE      C29           -31.9990593962      -25.3399788368        7.6075265847  MEMB      71              0.0000000000
      8733        71  PMPE      H9R           -31.7688696461      -24.8747121591        8.5317550053  MEMB      71              0.0000000000
      8734        71  PMPE      C217          -33.3761746368      -24.8272997987        7.8153978044  MEMB      71              0.0000000000
      8735        71  PMPE      H17R          -33.3832734959      -23.9809871528        8.4603666081  MEMB      71              0.0000000000
      8736        71  PMPE      H17S          -33.9856627551      -25.6526821108        7.9562923814  MEMB      71              0.0000000000
      8737        71  PMPE      C210          -32.6141733779      -24.6186654356        6.5236965672  MEMB      71              0.0000000000
      8738        71  PMPE      H10R          -32.4111510362      -23.5889538151        6.2836919357  MEMB      71              0.0000000000
      8739        71  PMPE      C211          -32.9874193914      -25.4059127898        5.3918460172  MEMB      71              0.0000000000
      8740        71  PMPE      H11R          -33.4111890725      -24.8140796385        4.6361537297  MEMB      71              0.0000000000
      8741        71  PMPE      H11S          -33.7030054148      -26.0908710418        5.7778518031  MEMB      71              0.0000000000
      8742        71  PMPE      C212          -32.0081978602      -26.2992507729        4.7337249673  MEMB      71              0.0000000000
      8743        71  PMPE      H12R          -32.4899776253      -26.7248836228        3.9205197312  MEMB      71              0.0000000000
      8744        71  PMPE      H12S          -31.9190289600      -27.2193216492        5.2802632680  MEMB      71              0.0000000000
      8745        71  PMPE      C213          -30.8579618768      -25.6946697509        4.0773537023  MEMB      71              0.0000000000
      8746        71  PMPE      H13R          -30.2610258399      -25.6203136734        4.9699729769  MEMB      71              0.0000000000
      8747        71  PMPE      H13S          -31.1091218676      -24.8468778193        3.4293656513  MEMB      71              0.0000000000
      8748        71  PMPE      C214          -29.9950322176      -26.5493642870        3.2647401182  MEMB      71              0.0000000000
      8749        71  PMPE      H14R          -29.9927965802      -27.5600494395        3.7139771949  MEMB      71              0.0000000000
      8750        71  PMPE      H14S          -28.9878870962      -26.0705919583        3.2706920170  MEMB      71              0.0000000000
      8751        71  PMPE      C215          -30.4332550664      -26.5285718238        1.8658850068  MEMB      71              0.0000000000
      8752        71  PMPE      H15R          -30.7382827113      -25.5342970065        1.4684557931  MEMB      71              0.0000000000
      8753        71  PMPE      H15S          -31.1922530470      -27.2857358460        1.6525354091  MEMB      71              0.0000000000
      8754        71  PMPE      C216          -29.4390653627      -27.1878327313        1.0798213690  MEMB      71              0.0000000000
      8755        71  PMPE      H16R          -29.4385098480      -28.2618557819        1.2987202891  MEMB      71              0.0000000000
      8756        71  PMPE      H16S          -29.9424130640      -27.1757991537        0.0903426417  MEMB      71              0.0000000000
      8757        71  PMPE      H16T          -28.4122947656      -26.7577119457        1.1087670593  MEMB      71              0.0000000000
      8758        71  PMPE      C33           -24.7025448634      -23.2595035326       10.6456223457  MEMB      71              0.0000000000
      8759        71  PMPE      H3X           -24.1200931772      -23.5755969892        9.7565608832  MEMB      71              0.0000000000
      8760        71  PMPE      H3Y           -24.7836727762      -22.1466138919       10.5740687176  MEMB      71              0.0000000000
      8761        71  PMPE      C34           -26.1234216961      -23.8542144695       10.5464076306  MEMB      71              0.0000000000
      8762        71  PMPE      H4X           -26.5016883484      -23.5834703486        9.5372380929  MEMB      71              0.0000000000
      8763        71  PMPE      H4Y           -26.8202682061      -23.3557978164       11.2594190109  MEMB      71              0.0000000000
      8764        71  PMPE      C35           -26.2047222514      -25.3832415364       10.7400338336  MEMB      71              0.0000000000
      8765        71  PMPE      H5X           -27.2716956486      -25.6845133321       10.8192997083  MEMB      71              0.0000000000
      8766        71  PMPE      H5Y           -25.7071885979      -25.7296071480       11.6735000701  MEMB      71              0.0000000000
      8767        71  PMPE      C36           -25.5785595225      -26.1656557697        9.5898455223  MEMB      71              0.0000000000
      8768        71  PMPE      H6X           -25.3803367920      -27.2112413178        9.9203899907  MEMB      71              0.0000000000
      8769        71  PMPE      H6Y           -24.6004300868      -25.7087873286        9.3137396628  MEMB      71              0.0000000000
      8770        71  PMPE      C37           -26.4667096117      -26.2277032936        8.3488811727  MEMB      71              0.0000000000
      8771        71  PMPE      H7X           -26.6592862332      -25.1906974925        8.0031494122  MEMB      71              0.0000000000
      8772        71  PMPE      H7Y           -27.4560443557      -26.6909480118        8.5666670581  MEMB      71              0.0000000000
      8773        71  PMPE      C38           -25.7283574280      -27.0294553709        7.2723997640  MEMB      71              0.0000000000
      8774        71  PMPE      H8X           -25.2280040781      -27.8910761320        7.7668526607  MEMB      71              0.0000000000
      8775        71  PMPE      H8Y           -24.9281213702      -26.3671358949        6.8753781633  MEMB      71              0.0000000000
      8776        71  PMPE      C39           -26.6311047805      -27.4936858945        6.1218480860  MEMB      71              0.0000000000
      8777        71  PMPE      H9X           -27.1014403831      -26.5663803928        5.7332941044  MEMB      71              0.0000000000
      8778        71  PMPE      H9Y           -27.4355819941      -28.1557704765        6.4987967465  MEMB      71              0.0000000000
      8779        71  PMPE      C310          -25.9023015390      -28.1880285279        4.9577490647  MEMB      71              0.0000000000
      8780        71  PMPE      H10X          -26.6213431992      -28.5994998367        4.2125422055  MEMB      71              0.0000000000
      8781        71  PMPE      H10Y          -25.2932957502      -29.0333492977        5.3485216074  MEMB      71              0.0000000000
      8782        71  PMPE      C311          -25.0691157558      -27.2063499506        4.1332583832  MEMB      71              0.0000000000
      8783        71  PMPE      H11X          -24.3232970330      -27.7767918779        3.5430706014  MEMB      71              0.0000000000
      8784        71  PMPE      H11Y          -24.5304979269      -26.5278649998        4.8268643282  MEMB      71              0.0000000000
      8785        71  PMPE      C312          -25.9434796493      -26.4751976805        3.1061214750  MEMB      71              0.0000000000
      8786        71  PMPE      H12X          -26.9496709148      -26.2639882726        3.5285900675  MEMB      71              0.0000000000
      8787        71  PMPE      H12Y          -26.1025441078      -27.1379245238        2.2253580641  MEMB      71              0.0000000000
      8788        71  PMPE      C313          -25.4025693863      -25.1372951203        2.6610442024  MEMB      71              0.0000000000
      8789        71  PMPE      H13X          -24.4642879267      -25.1753000732        2.0664901664  MEMB      71              0.0000000000
      8790        71  PMPE      H13Y          -25.2592405875      -24.4502959494        3.5314706663  MEMB      71              0.0000000000
      8791        71  PMPE      C314          -26.3956095702      -24.4475630923        1.8045885738  MEMB      71              0.0000000000
      8792        71  PMPE      H14X          -27.3933233072      -24.3728305720        2.3142260231  MEMB      71              0.0000000000
      8793        71  PMPE      H14Y          -26.5696521835      -24.9271684787        0.8133167194  MEMB      71              0.0000000000
      8794        71  PMPE      C315          -25.8007228618      -23.1025735940        1.6120593950  MEMB      71              0.0000000000
      8795        71  PMPE      H15X          -24.9941326032      -22.9792881372        0.8470293078  MEMB      71              0.0000000000
      8796        71  PMPE      H15Y          -25.6461652224      -22.4871129663        2.5350454502  MEMB      71              0.0000000000
      8797        71  PMPE      C316          -26.8795013860      -22.4988233885        0.9811176886  MEMB      71              0.0000000000
      8798        71  PMPE      H16X          -26.4301137558      -21.5416309997        0.6543061601  MEMB      71              0.0000000000
      8799        71  PMPE      H16Y          -27.7337458507      -22.3680727496        1.6811669179  MEMB      71              0.0000000000
      8800        71  PMPE      H16Z          -27.2531014354      -23.0779108090        0.1051849563  MEMB      71              0.0000000000
      8801        72  PMPE      N             -38.4536318478       -2.0136857162       21.4114948291  MEMB      72              0.0000000000
      8802        72  PMPE      HN1           -38.5290371490       -1.6047203828       22.3616551761  MEMB      72              0.0000000000
      8803        72  PMPE      HN2           -38.2458484300       -1.2665214363       20.7094771637  MEMB      72              0.0000000000
      8804        72  PMPE      HN3           -39.3542261557       -2.4769117557       21.1240497947  MEMB      72              0.0000000000
      8805        72  PMPE      C12           -37.3439641773       -3.0374076696       21.4250906721  MEMB      72              0.0000000000
      8806        72  PMPE      H12A          -37.7428713941       -3.9298677145       21.9546344731  MEMB      72              0.0000000000
      8807        72  PMPE      H12B          -36.4959799955       -2.6101310456       21.9953059111  MEMB      72              0.0000000000
      8808        72  PMPE      C11           -36.8827077631       -3.4077751001       20.0123976859  MEMB      72              0.0000000000
      8809        72  PMPE      H11A          -36.1684045644       -4.2697884554       20.0790655288  MEMB      72              0.0000000000
      8810        72  PMPE      H11B          -36.3182130897       -2.5597938372       19.5583883159  MEMB      72              0.0000000000
      8811        72  PMPE      P             -37.9383200245       -4.4408576089       17.8362691303  MEMB      72              0.0000000000
      8812        72  PMPE      O13           -38.1831306334       -3.5282931638       16.7019923037  MEMB      72              0.0000000000
      8813        72  PMPE      O14           -38.6424927245       -5.7358291753       17.9245747936  MEMB      72              0.0000000000
      8814        72  PMPE      O11           -36.4297095330       -4.7813343775       17.8507823145  MEMB      72              0.0000000000
      8815        72  PMPE      O12           -38.0359102495       -3.7062140472       19.2332075328  MEMB      72              0.0000000000
      8816        72  PMPE      C1            -36.0260128178       -5.8220615079       17.0206659944  MEMB      72              0.0000000000
      8817        72  PMPE      HA            -36.7295546623       -5.9757654059       16.1657604872  MEMB      72              0.0000000000
      8818        72  PMPE      HB            -36.0562920625       -6.8120188419       17.5220647143  MEMB      72              0.0000000000
      8819        72  PMPE      C2            -34.6535653613       -5.4336030486       16.5351303954  MEMB      72              0.0000000000
      8820        72  PMPE      HS            -33.8605673841       -5.6724810810       17.3219764858  MEMB      72              0.0000000000
      8821        72  PMPE      O21           -34.4602234146       -4.2241432654       15.8860565697  MEMB      72              0.0000000000
      8822        72  PMPE      C21           -34.1292215212       -3.3144519580       16.6760397111  MEMB      72              0.0000000000
      8823        72  PMPE      O22           -33.9004155212       -3.4105886884       17.8774668587  MEMB      72              0.0000000000
      8824        72  PMPE      C22           -34.0462492204       -2.1255400282       15.7847821495  MEMB      72              0.0000000000
      8825        72  PMPE      H2R           -33.0655440632       -2.1672946883       15.2516095666  MEMB      72              0.0000000000
      8826        72  PMPE      H2S           -34.0473855341       -1.2643734753       16.4671393893  MEMB      72              0.0000000000
      8827        72  PMPE      C3            -34.3440549140       -6.2584793842       15.5931137376  MEMB      72              0.0000000000
      8828        72  PMPE      HX            -33.7549808160       -7.0314666654       16.0540027395  MEMB      72              0.0000000000
      8829        72  PMPE      HY            -33.2463286851       -6.1499450153       15.3220873170  MEMB      72              0.0000000000
      8830        72  PMPE      O31           -35.5324164729       -6.4092984675       14.5902200195  MEMB      72              0.0000000000
      8831        72  PMPE      C31           -36.3606575233       -7.3038768935       13.9009133224  MEMB      72              0.0000000000
      8832        72  PMPE      O32           -36.4402032263       -8.4876776462       13.8279197754  MEMB      72              0.0000000000
      8833        72  PMPE      C32           -37.0846480423       -6.7192294507       12.8100396191  MEMB      72              0.0000000000
      8834        72  PMPE      H2X           -37.1447416573       -5.6431678072       12.9411395528  MEMB      72              0.0000000000
      8835        72  PMPE      H2Y           -38.0455593371       -7.2986158473       12.9109336860  MEMB      72              0.0000000000
      8836        72  PMPE      C23           -35.2155245952       -2.1044651430       14.7597794700  MEMB      72              0.0000000000
      8837        72  PMPE      H3R           -36.2177505129       -2.0329234195       15.2336774492  MEMB      72              0.0000000000
      8838        72  PMPE      H3S           -35.1629981085       -2.9730417743       14.0617717374  MEMB      72              0.0000000000
      8839        72  PMPE      C24           -35.0951001843       -0.8724817722       13.9283877778  MEMB      72              0.0000000000
      8840        72  PMPE      H4R           -33.9866597568       -0.8131870626       13.8749639079  MEMB      72              0.0000000000
      8841        72  PMPE      H4S           -35.4307492450       -0.0137643118       14.5630720777  MEMB      72              0.0000000000
      8842        72  PMPE      C25           -35.8671551474       -0.8918711593       12.5740000783  MEMB      72              0.0000000000
      8843        72  PMPE      H5R           -35.6276424379       -0.1374519363       11.8201373417  MEMB      72              0.0000000000
      8844        72  PMPE      H5S           -36.8971317282       -0.5438649318       12.7349931965  MEMB      72              0.0000000000
      8845        72  PMPE      C26           -35.5896482537       -1.9595392897       11.5208469150  MEMB      72              0.0000000000
      8846        72  PMPE      H6R           -36.2445670967       -1.6307098513       10.6576940086  MEMB      72              0.0000000000
      8847        72  PMPE      H6S           -35.8225792464       -2.9376988322       11.9100328740  MEMB      72              0.0000000000
      8848        72  PMPE      C27           -34.1692292504       -1.9521208172       10.9523769264  MEMB      72              0.0000000000
      8849        72  PMPE      H7R           -33.2897057004       -2.0643385794       11.6118458639  MEMB      72              0.0000000000
      8850        72  PMPE      H7S           -34.2242553839       -0.9151701412       10.9310595844  MEMB      72              0.0000000000
      8851        72  PMPE      C28           -34.0777894557       -2.5212776698        9.5310347239  MEMB      72              0.0000000000
      8852        72  PMPE      H8R           -33.2103804655       -2.1539954795        8.9335582597  MEMB      72              0.0000000000
      8853        72  PMPE      H8S           -34.9999557628       -2.3066690004        8.9524427226  MEMB      72              0.0000000000
      8854        72  PMPE      C29           -33.9743772795       -3.9830709086        9.8148532342  MEMB      72              0.0000000000
      8855        72  PMPE      H9R           -34.5696341328       -4.3711848139       10.6709869741  MEMB      72              0.0000000000
      8856        72  PMPE      C217          -32.4797135990       -4.2837614481        9.8167868734  MEMB      72              0.0000000000
      8857        72  PMPE      H17R          -32.0097773161       -5.1552738357       10.1539168450  MEMB      72              0.0000000000
      8858        72  PMPE      H17S          -31.7960829067       -3.6737103389        9.2779223154  MEMB      72              0.0000000000
      8859        72  PMPE      C210          -33.4206686416       -4.9781777185        8.8743789525  MEMB      72              0.0000000000
      8860        72  PMPE      H10R          -33.6202772339       -6.0191342478        9.2086753723  MEMB      72              0.0000000000
      8861        72  PMPE      C211          -32.8298207262       -4.6543530708        7.5034896299  MEMB      72              0.0000000000
      8862        72  PMPE      H11R          -31.9666647101       -5.3192580774        7.3056158591  MEMB      72              0.0000000000
      8863        72  PMPE      H11S          -32.7498531874       -3.5690771854        7.3347703330  MEMB      72              0.0000000000
      8864        72  PMPE      C212          -33.7804312865       -4.9899179885        6.4548482355  MEMB      72              0.0000000000
      8865        72  PMPE      H12R          -34.6464824365       -4.4880210818        6.9901456887  MEMB      72              0.0000000000
      8866        72  PMPE      H12S          -33.6686209213       -6.1202293253        6.5056694078  MEMB      72              0.0000000000
      8867        72  PMPE      C213          -33.8292413046       -4.6016023924        4.9545779481  MEMB      72              0.0000000000
      8868        72  PMPE      H13R          -33.0404507742       -5.2773442728        4.5498199995  MEMB      72              0.0000000000
      8869        72  PMPE      H13S          -33.6992987785       -3.5223646271        4.9787298976  MEMB      72              0.0000000000
      8870        72  PMPE      C214          -35.0642903976       -4.6000921599        3.9596982522  MEMB      72              0.0000000000
      8871        72  PMPE      H14R          -36.0946205579       -4.4073428312        4.3015968786  MEMB      72              0.0000000000
      8872        72  PMPE      H14S          -35.2605537781       -5.5275028433        3.5087043316  MEMB      72              0.0000000000
      8873        72  PMPE      C215          -34.8067716877       -4.6025491018        2.4722734079  MEMB      72              0.0000000000
      8874        72  PMPE      H15R          -33.9225287807       -5.2813991787        2.2454351786  MEMB      72              0.0000000000
      8875        72  PMPE      H15S          -34.6391926701       -3.5475069410        2.3257450284  MEMB      72              0.0000000000
      8876        72  PMPE      C216          -36.0129236260       -4.9778939877        1.6048582689  MEMB      72              0.0000000000
      8877        72  PMPE      H16R          -36.5429502399       -5.8685333342        1.8244628463  MEMB      72              0.0000000000
      8878        72  PMPE      H16S          -36.9355125608       -4.4178561754        1.8032293203  MEMB      72              0.0000000000
      8879        72  PMPE      H16T          -35.6512883367       -5.0842147817        0.5653955080  MEMB      72              0.0000000000
      8880        72  PMPE      C33           -36.4975596870       -7.0445394731       11.4419403979  MEMB      72              0.0000000000
      8881        72  PMPE      H3X           -36.3155023969       -8.1503983174       11.2214667270  MEMB      72              0.0000000000
      8882        72  PMPE      H3Y           -35.6054131398       -6.4730131559       11.1285302814  MEMB      72              0.0000000000
      8883        72  PMPE      C34           -37.4149681863       -6.5169912158       10.4963552218  MEMB      72              0.0000000000
      8884        72  PMPE      H4X           -38.0984415676       -7.3111494427       10.7225482489  MEMB      72              0.0000000000
      8885        72  PMPE      H4Y           -37.0229090624       -6.4164845690        9.5000754860  MEMB      72              0.0000000000
      8886        72  PMPE      C35           -38.1192740030       -5.2838678331       10.6347871095  MEMB      72              0.0000000000
      8887        72  PMPE      H5X           -37.3048251113       -4.5464934136       10.6526091982  MEMB      72              0.0000000000
      8888        72  PMPE      H5Y           -38.7163562682       -5.4054157057       11.5513671008  MEMB      72              0.0000000000
      8889        72  PMPE      C36           -38.8740965181       -5.0393950844        9.3700536074  MEMB      72              0.0000000000
      8890        72  PMPE      H6X           -39.6365820391       -5.7711949557        9.1878212700  MEMB      72              0.0000000000
      8891        72  PMPE      H6Y           -38.3051314514       -5.1173888159        8.4312255969  MEMB      72              0.0000000000
      8892        72  PMPE      C37           -39.5569494477       -3.7424271058        9.4561257871  MEMB      72              0.0000000000
      8893        72  PMPE      H7X           -40.0864416166       -3.7025070222       10.4249433549  MEMB      72              0.0000000000
      8894        72  PMPE      H7Y           -40.1917675834       -3.7075318218        8.5400362262  MEMB      72              0.0000000000
      8895        72  PMPE      C38           -38.9109185791       -2.4485624262        9.6448081572  MEMB      72              0.0000000000
      8896        72  PMPE      H8X           -38.4532485985       -2.4441474355       10.6590034423  MEMB      72              0.0000000000
      8897        72  PMPE      H8Y           -39.7489778163       -1.7168301264        9.6158708253  MEMB      72              0.0000000000
      8898        72  PMPE      C39           -37.9787232748       -2.3036180868        8.4966578968  MEMB      72              0.0000000000
      8899        72  PMPE      H9X           -37.3820794638       -3.2440190768        8.4458550235  MEMB      72              0.0000000000
      8900        72  PMPE      H9Y           -37.3141094488       -1.4775521728        8.7918637613  MEMB      72              0.0000000000
      8901        72  PMPE      C310          -38.7011534984       -2.0670013318        7.1579887848  MEMB      72              0.0000000000
      8902        72  PMPE      H10X          -39.2269768424       -1.0891103665        7.2012013241  MEMB      72              0.0000000000
      8903        72  PMPE      H10Y          -39.4819349881       -2.8326203110        6.9413135545  MEMB      72              0.0000000000
      8904        72  PMPE      C311          -37.7191302990       -2.1270565161        5.9896685436  MEMB      72              0.0000000000
      8905        72  PMPE      H11X          -37.2732021812       -3.1469826751        5.9504541531  MEMB      72              0.0000000000
      8906        72  PMPE      H11Y          -36.8868606260       -1.4155628876        6.1769150904  MEMB      72              0.0000000000
      8907        72  PMPE      C312          -38.3669341787       -1.7767927344        4.6475636814  MEMB      72              0.0000000000
      8908        72  PMPE      H12X          -38.9160670959       -0.8121446503        4.7544716026  MEMB      72              0.0000000000
      8909        72  PMPE      H12Y          -39.1099233103       -2.5467834603        4.3460772995  MEMB      72              0.0000000000
      8910        72  PMPE      C313          -37.3335133680       -1.5434533260        3.5410513935  MEMB      72              0.0000000000
      8911        72  PMPE      H13X          -36.6681760412       -2.4201825796        3.3893062414  MEMB      72              0.0000000000
      8912        72  PMPE      H13Y          -36.6862734732       -0.7074991761        3.8882992159  MEMB      72              0.0000000000
      8913        72  PMPE      C314          -38.0270828837       -1.1550473790        2.2288623227  MEMB      72              0.0000000000
      8914        72  PMPE      H14X          -38.8367843288       -0.4241224754        2.4614623669  MEMB      72              0.0000000000
      8915        72  PMPE      H14Y          -38.5304121578       -2.0445391117        1.7938393004  MEMB      72              0.0000000000
      8916        72  PMPE      C315          -37.0908587915       -0.5777178786        1.1577693092  MEMB      72              0.0000000000
      8917        72  PMPE      H15X          -36.6581064846        0.3617677390        1.5092182615  MEMB      72              0.0000000000
      8918        72  PMPE      H15Y          -37.6963549158       -0.3112668502        0.2653924740  MEMB      72              0.0000000000
      8919        72  PMPE      C316          -35.9368839337       -1.4810298571        0.7290269511  MEMB      72              0.0000000000
      8920        72  PMPE      H16X          -35.1763986467       -1.5871578011        1.5327741087  MEMB      72              0.0000000000
      8921        72  PMPE      H16Y          -35.4207724814       -1.0611151670       -0.1596286829  MEMB      72              0.0000000000
      8922        72  PMPE      H16Z          -36.3490837458       -2.4766278343        0.4647157987  MEMB      72              0.0000000000
      8923        73  PMPE      N               3.5154067743       40.5447713055       17.7746827205  MEMB      73              0.0000000000
      8924        73  PMPE      HN1             3.0123284898       40.6772589009       18.6774858939  MEMB      73              0.0000000000
      8925        73  PMPE      HN2             3.1000301743       41.1697283809       17.0629031770  MEMB      73              0.0000000000
      8926        73  PMPE      HN3             3.3979472184       39.5294750529       17.5367126612  MEMB      73              0.0000000000
      8927        73  PMPE      C12             4.9688200633       40.9439901910       18.0066398455  MEMB      73              0.0000000000
      8928        73  PMPE      H12A            4.9807220280       41.9410858512       18.5050365292  MEMB      73              0.0000000000
      8929        73  PMPE      H12B            5.6006649322       40.8471802059       17.1180112350  MEMB      73              0.0000000000
      8930        73  PMPE      C11             5.5151163755       39.9707773487       18.9924446488  MEMB      73              0.0000000000
      8931        73  PMPE      H11A            5.4184373861       38.8792201577       18.7263658495  MEMB      73              0.0000000000
      8932        73  PMPE      H11B            4.7551586696       40.3452916801       19.7009825230  MEMB      73              0.0000000000
      8933        73  PMPE      P               8.0163351264       40.6585550833       19.1955633051  MEMB      73              0.0000000000
      8934        73  PMPE      O13             9.0908467103       40.2301944430       20.1096998532  MEMB      73              0.0000000000
      8935        73  PMPE      O14             7.8653108271       42.0809816444       18.8473758896  MEMB      73              0.0000000000
      8936        73  PMPE      O11             7.8849840698       39.7283972284       17.9470965983  MEMB      73              0.0000000000
      8937        73  PMPE      O12             6.6299993311       40.2523155127       19.8024200802  MEMB      73              0.0000000000
      8938        73  PMPE      C1              8.1996021123       38.3518237423       18.0639237331  MEMB      73              0.0000000000
      8939        73  PMPE      HA              7.5225724395       37.8013079435       18.7558524462  MEMB      73              0.0000000000
      8940        73  PMPE      HB              9.2197802530       38.1837892971       18.4737155961  MEMB      73              0.0000000000
      8941        73  PMPE      C2              8.1437727409       37.7685432242       16.6557941619  MEMB      73              0.0000000000
      8942        73  PMPE      HS              8.9598102983       38.2013628486       16.0269945257  MEMB      73              0.0000000000
      8943        73  PMPE      O21             6.8235762307       38.0112846621       16.0891174481  MEMB      73              0.0000000000
      8944        73  PMPE      C21             6.6423136533       39.1168322341       15.3544217315  MEMB      73              0.0000000000
      8945        73  PMPE      O22             7.4843638199       39.9528763504       15.1229833628  MEMB      73              0.0000000000
      8946        73  PMPE      C22             5.1823131817       39.2716507074       14.7982480236  MEMB      73              0.0000000000
      8947        73  PMPE      H2R             5.1208912395       40.2334610585       14.2736411489  MEMB      73              0.0000000000
      8948        73  PMPE      H2S             4.4823228030       39.1361539927       15.6442520679  MEMB      73              0.0000000000
      8949        73  PMPE      C3              8.4719447774       36.2644057215       16.8466107634  MEMB      73              0.0000000000
      8950        73  PMPE      HX              7.6166565320       35.7121415794       17.1556086162  MEMB      73              0.0000000000
      8951        73  PMPE      HY              9.1334912691       36.1514823669       17.7179938783  MEMB      73              0.0000000000
      8952        73  PMPE      O31             9.1562193103       35.7012150239       15.7611408296  MEMB      73              0.0000000000
      8953        73  PMPE      C31             8.5952334764       34.9828056743       14.8335256064  MEMB      73              0.0000000000
      8954        73  PMPE      O32             7.7853504693       34.0967403517       14.9832063862  MEMB      73              0.0000000000
      8955        73  PMPE      C32             9.1917945295       35.3175436876       13.5154173438  MEMB      73              0.0000000000
      8956        73  PMPE      H2X             8.6146584023       35.1288556402       12.5901369193  MEMB      73              0.0000000000
      8957        73  PMPE      H2Y             9.7907776018       34.3795752287       13.5528642847  MEMB      73              0.0000000000
      8958        73  PMPE      C23             4.6782998923       38.4208639622       13.6075874619  MEMB      73              0.0000000000
      8959        73  PMPE      H3R             4.5039193174       37.7355579945       14.3828207873  MEMB      73              0.0000000000
      8960        73  PMPE      H3S             5.4943867884       38.0511236829       12.9393245674  MEMB      73              0.0000000000
      8961        73  PMPE      C24             3.2238689214       37.8871846572       13.3977582398  MEMB      73              0.0000000000
      8962        73  PMPE      H4R             2.6414639927       37.6697826639       14.3294914706  MEMB      73              0.0000000000
      8963        73  PMPE      H4S             3.1116795313       36.9180561248       12.8518942538  MEMB      73              0.0000000000
      8964        73  PMPE      C25             2.6579997976       38.9553665975       12.5987748294  MEMB      73              0.0000000000
      8965        73  PMPE      H5R             3.1423683564       39.8714374455       13.0202628178  MEMB      73              0.0000000000
      8966        73  PMPE      H5S             1.5697140581       38.9445377181       12.7639215253  MEMB      73              0.0000000000
      8967        73  PMPE      C26             3.0911010437       38.8252388909       11.1598805591  MEMB      73              0.0000000000
      8968        73  PMPE      H6R             2.5240314937       37.9897116307       10.6841118448  MEMB      73              0.0000000000
      8969        73  PMPE      H6S             4.1862262042       38.6199436741       11.1205004825  MEMB      73              0.0000000000
      8970        73  PMPE      C27             2.9134241877       40.1346901902       10.4519185623  MEMB      73              0.0000000000
      8971        73  PMPE      H7R             3.2324457849       40.9627555684       11.1151917437  MEMB      73              0.0000000000
      8972        73  PMPE      H7S             1.8331828433       40.2343339301       10.3606037677  MEMB      73              0.0000000000
      8973        73  PMPE      C28             3.7439104258       40.2350575259        9.1727731262  MEMB      73              0.0000000000
      8974        73  PMPE      H8R             3.4383487963       39.4621342353        8.4281808719  MEMB      73              0.0000000000
      8975        73  PMPE      H8S             4.7986086093       40.0771241895        9.4312922875  MEMB      73              0.0000000000
      8976        73  PMPE      C29             3.8010625876       41.6448490878        8.6336571892  MEMB      73              0.0000000000
      8977        73  PMPE      H9R             3.4671378040       42.4924618308        9.2780796472  MEMB      73              0.0000000000
      8978        73  PMPE      C217            2.8251982280       41.6023591759        7.5812517457  MEMB      73              0.0000000000
      8979        73  PMPE      H17R            2.1766383989       42.4733817010        7.7085901762  MEMB      73              0.0000000000
      8980        73  PMPE      H17S            2.4659556467       40.6543218305        7.2014085278  MEMB      73              0.0000000000
      8981        73  PMPE      C210            4.1762931106       41.9413367660        7.1821897752  MEMB      73              0.0000000000
      8982        73  PMPE      H10R            4.2036018755       43.0028889849        6.8768485343  MEMB      73              0.0000000000
      8983        73  PMPE      C211            4.5469813813       40.8236163242        6.2092883454  MEMB      73              0.0000000000
      8984        73  PMPE      H11R            3.8348732741       39.9670362081        6.1382803256  MEMB      73              0.0000000000
      8985        73  PMPE      H11S            5.4593776043       40.4624945803        6.6737600193  MEMB      73              0.0000000000
      8986        73  PMPE      C212            4.9940780973       41.2212848368        4.8058185523  MEMB      73              0.0000000000
      8987        73  PMPE      H12R            5.5386312413       40.3892502938        4.3372060333  MEMB      73              0.0000000000
      8988        73  PMPE      H12S            5.5603318023       42.1764885437        4.8815707956  MEMB      73              0.0000000000
      8989        73  PMPE      C213            3.9098018019       41.3151736964        3.7797620622  MEMB      73              0.0000000000
      8990        73  PMPE      H13R            3.6262081335       42.2827929896        4.1378511532  MEMB      73              0.0000000000
      8991        73  PMPE      H13S            3.1074253314       40.5895546634        3.9632763039  MEMB      73              0.0000000000
      8992        73  PMPE      C214            4.2726944049       41.5574778143        2.3406415973  MEMB      73              0.0000000000
      8993        73  PMPE      H14R            3.5300963947       41.5500931767        1.5184624957  MEMB      73              0.0000000000
      8994        73  PMPE      H14S            4.7372823063       40.6592964626        1.9598747630  MEMB      73              0.0000000000
      8995        73  PMPE      C215            4.8594946030       42.9540272202        2.3527701173  MEMB      73              0.0000000000
      8996        73  PMPE      H15R            5.7795388423       42.9682470622        2.9411826334  MEMB      73              0.0000000000
      8997        73  PMPE      H15S            4.1805102078       43.8416379579        2.5327926255  MEMB      73              0.0000000000
      8998        73  PMPE      C216            5.3899776844       43.1850408334        1.0881953211  MEMB      73              0.0000000000
      8999        73  PMPE      H16R            6.0038308018       44.0964106470        0.9776906255  MEMB      73              0.0000000000
      9000        73  PMPE      H16S            5.9974993924       42.3552364865        0.7285280269  MEMB      73              0.0000000000
      9001        73  PMPE      H16T            4.5049839497       43.2199461767        0.4402681634  MEMB      73              0.0000000000
      9002        73  PMPE      C33             9.8348652341       36.7432885686       13.6929253322  MEMB      73              0.0000000000
      9003        73  PMPE      H3X            10.7558827238       37.0952592715       13.1835648007  MEMB      73              0.0000000000
      9004        73  PMPE      H3Y            10.3259186659       36.8799372321       14.6456323246  MEMB      73              0.0000000000
      9005        73  PMPE      C34             9.2675657258       37.8876968154       13.0058790868  MEMB      73              0.0000000000
      9006        73  PMPE      H4X            10.0042926574       38.7002666003       13.1097918931  MEMB      73              0.0000000000
      9007        73  PMPE      H4Y             8.4999686779       38.2215956516       13.6733022208  MEMB      73              0.0000000000
      9008        73  PMPE      C35             8.7884935637       37.5801305756       11.6051065938  MEMB      73              0.0000000000
      9009        73  PMPE      H5X             8.0650481362       36.7541936475       11.6783564665  MEMB      73              0.0000000000
      9010        73  PMPE      H5Y             9.5605622584       37.1916745867       10.8852504901  MEMB      73              0.0000000000
      9011        73  PMPE      C36             8.0326421999       38.8277924130       11.1490456162  MEMB      73              0.0000000000
      9012        73  PMPE      H6X             8.6275564871       39.7600175236       11.0220157365  MEMB      73              0.0000000000
      9013        73  PMPE      H6Y             7.3550260403       39.1518195911       11.9502186105  MEMB      73              0.0000000000
      9014        73  PMPE      C37             7.2945989734       38.5873646564        9.8622135964  MEMB      73              0.0000000000
      9015        73  PMPE      H7X             6.7735027225       39.5497452302        9.6520016757  MEMB      73              0.0000000000
      9016        73  PMPE      H7Y             6.6200164820       37.7358806798        9.9503350799  MEMB      73              0.0000000000
      9017        73  PMPE      C38             8.0950109011       38.2213769852        8.6506917998  MEMB      73              0.0000000000
      9018        73  PMPE      H8X             8.5184675094       37.2043139947        8.5341126979  MEMB      73              0.0000000000
      9019        73  PMPE      H8Y             9.0159582305       38.7526994207        8.8265765433  MEMB      73              0.0000000000
      9020        73  PMPE      C39             7.3118274189       38.7031642946        7.4274503373  MEMB      73              0.0000000000
      9021        73  PMPE      H9X             7.9251142370       38.4538283141        6.5989079297  MEMB      73              0.0000000000
      9022        73  PMPE      H9Y             7.1031365115       39.7787525536        7.3613095494  MEMB      73              0.0000000000
      9023        73  PMPE      C310            6.1846561678       37.8821442173        6.9096738930  MEMB      73              0.0000000000
      9024        73  PMPE      H10X            5.7239260162       38.3240462430        6.0093288300  MEMB      73              0.0000000000
      9025        73  PMPE      H10Y            5.4137839024       37.8119358839        7.7009857215  MEMB      73              0.0000000000
      9026        73  PMPE      C311            6.7345165558       36.5564830343        6.4556486636  MEMB      73              0.0000000000
      9027        73  PMPE      H11X            5.7996410527       36.1832342879        5.9935083512  MEMB      73              0.0000000000
      9028        73  PMPE      H11Y            7.1387176358       36.0447443491        7.3557339339  MEMB      73              0.0000000000
      9029        73  PMPE      C312            7.4783521154       36.1785075818        5.2030321886  MEMB      73              0.0000000000
      9030        73  PMPE      H12X            7.5740035392       35.0788110401        5.2209013821  MEMB      73              0.0000000000
      9031        73  PMPE      H12Y            8.5152084009       36.4899534414        5.3182906662  MEMB      73              0.0000000000
      9032        73  PMPE      C313            6.7778380629       36.6540717383        3.9112789003  MEMB      73              0.0000000000
      9033        73  PMPE      H13X            7.3241782236       36.2109509814        3.0558871101  MEMB      73              0.0000000000
      9034        73  PMPE      H13Y            6.7876910064       37.7524058070        3.9098127546  MEMB      73              0.0000000000
      9035        73  PMPE      C314            5.2831311014       36.3898283380        3.6996985497  MEMB      73              0.0000000000
      9036        73  PMPE      H14X            4.6180929996       36.8407336016        4.4580824344  MEMB      73              0.0000000000
      9037        73  PMPE      H14Y            5.2665743441       35.3210225783        3.7826678014  MEMB      73              0.0000000000
      9038        73  PMPE      C315            4.7066150708       36.6515446434        2.3156646964  MEMB      73              0.0000000000
      9039        73  PMPE      H15X            3.6936100383       36.2976558524        2.0348693460  MEMB      73              0.0000000000
      9040        73  PMPE      H15Y            5.3247737710       36.0129030486        1.7031295703  MEMB      73              0.0000000000
      9041        73  PMPE      C316            4.4614719115       38.0754681371        2.0642399812  MEMB      73              0.0000000000
      9042        73  PMPE      H16X            5.3192954038       38.6229435023        2.4738488765  MEMB      73              0.0000000000
      9043        73  PMPE      H16Y            3.5580374627       38.3832735789        2.6433583918  MEMB      73              0.0000000000
      9044        73  PMPE      H16Z            4.2727202825       38.2285557932        0.9822525193  MEMB      73              0.0000000000
      9045        74  PYPG      C13            43.5922893493        3.4906237274       21.1433489708  MEMB      74              0.0000000000
      9046        74  PYPG      H13A           43.0247903774        3.1569214341       22.0120295424  MEMB      74              0.0000000000
      9047        74  PYPG      H13B           44.3923815804        2.7435525937       20.9765987604  MEMB      74              0.0000000000
      9048        74  PYPG      OC3            44.1739170786        4.7422293073       21.5223871209  MEMB      74              0.0000000000
      9049        74  PYPG      HO3            43.4558306981        5.3865248785       21.5658804828  MEMB      74              0.0000000000
      9050        74  PYPG      C12            42.6848254678        3.4972520602       19.8758156542  MEMB      74              0.0000000000
      9051        74  PYPG      H12A           42.2936108139        2.4648756026       19.7306996066  MEMB      74              0.0000000000
      9052        74  PYPG      OC2            43.4943151636        3.7437714453       18.7316070128  MEMB      74              0.0000000000
      9053        74  PYPG      HO2            42.8791017418        4.0403451516       18.0389105501  MEMB      74              0.0000000000
      9054        74  PYPG      C11            41.4702147031        4.4726729968       20.0029487750  MEMB      74              0.0000000000
      9055        74  PYPG      H11A           41.8542373391        5.5109019292       20.1246735437  MEMB      74              0.0000000000
      9056        74  PYPG      H11B           40.9074119566        4.2562874041       20.9349785825  MEMB      74              0.0000000000
      9057        74  PYPG      P              40.4697781001        5.4075466790       17.7773180913  MEMB      74              0.0000000000
      9058        74  PYPG      O13            41.8614066650        5.7105658963       17.4216632961  MEMB      74              0.0000000000
      9059        74  PYPG      O14            39.5870225642        6.5231059471       18.1531518484  MEMB      74              0.0000000000
      9060        74  PYPG      O11            39.7760608553        4.5748991301       16.6343882989  MEMB      74              0.0000000000
      9061        74  PYPG      O12            40.5355688608        4.3377960895       18.9318427852  MEMB      74              0.0000000000
      9062        74  PYPG      C1             40.3907049048        3.6349978310       15.7964894592  MEMB      74              0.0000000000
      9063        74  PYPG      HA             39.5873763565        3.0037926128       15.3516273584  MEMB      74              0.0000000000
      9064        74  PYPG      HB             41.0462779410        2.9708682596       16.3965812297  MEMB      74              0.0000000000
      9065        74  PYPG      C2             41.2043690499        4.3613071601       14.6914196322  MEMB      74              0.0000000000
      9066        74  PYPG      HS             41.9232570495        5.0449108529       15.1999855637  MEMB      74              0.0000000000
      9067        74  PYPG      O21            40.3008388711        5.1135568705       13.8561201282  MEMB      74              0.0000000000
      9068        74  PYPG      C21            40.8792347392        5.9634245851       13.0207441221  MEMB      74              0.0000000000
      9069        74  PYPG      O22            42.0674582781        6.1850782621       12.9046256441  MEMB      74              0.0000000000
      9070        74  PYPG      C22            39.7978271707        6.5469234510       12.1425396780  MEMB      74              0.0000000000
      9071        74  PYPG      H2R            40.2230607229        7.4538213534       11.6712519137  MEMB      74              0.0000000000
      9072        74  PYPG      H2S            38.8971582699        6.8219612050       12.7291071402  MEMB      74              0.0000000000
      9073        74  PYPG      C3             42.0392003348        3.3555552834       13.8530018737  MEMB      74              0.0000000000
      9074        74  PYPG      HX             42.6876439915        2.8176763397       14.5816085802  MEMB      74              0.0000000000
      9075        74  PYPG      HY             42.7211793038        3.9375965973       13.1930250861  MEMB      74              0.0000000000
      9076        74  PYPG      O31            41.2081647237        2.4073803889       13.1470976158  MEMB      74              0.0000000000
      9077        74  PYPG      C31            41.1888805982        2.5252179522       11.8240665119  MEMB      74              0.0000000000
      9078        74  PYPG      O32            41.9197395274        3.2197896552       11.1460383211  MEMB      74              0.0000000000
      9079        74  PYPG      C32            40.0968904814        1.6249734768       11.2678959194  MEMB      74              0.0000000000
      9080        74  PYPG      H2X            40.5357406217        0.6143078044       11.1371443597  MEMB      74              0.0000000000
      9081        74  PYPG      H2Y            39.2461076066        1.5736917169       11.9770221313  MEMB      74              0.0000000000
      9082        74  PYPG      C23            39.4088025561        5.5590089895       11.0554960296  MEMB      74              0.0000000000
      9083        74  PYPG      H3R            38.9056907641        4.6695291813       11.5130395156  MEMB      74              0.0000000000
      9084        74  PYPG      H3S            40.2907768981        5.1632535054       10.5063882194  MEMB      74              0.0000000000
      9085        74  PYPG      C24            38.4625010703        6.2283283013       10.0729106511  MEMB      74              0.0000000000
      9086        74  PYPG      H4R            37.5289900637        6.5745066314       10.5840921217  MEMB      74              0.0000000000
      9087        74  PYPG      H4S            38.2897548292        5.3888053550        9.3988545115  MEMB      74              0.0000000000
      9088        74  PYPG      C25            38.9631192043        7.2751355536        9.0720560830  MEMB      74              0.0000000000
      9089        74  PYPG      H5R            39.0667282601        8.2102572381        9.6578850736  MEMB      74              0.0000000000
      9090        74  PYPG      H5S            38.1891660602        7.4458206899        8.2826179107  MEMB      74              0.0000000000
      9091        74  PYPG      C26            40.2470031729        6.9014524170        8.3135068832  MEMB      74              0.0000000000
      9092        74  PYPG      H6R            41.0227143188        6.5896919727        9.0460753352  MEMB      74              0.0000000000
      9093        74  PYPG      H6S            40.6016597317        7.8339769436        7.8204945216  MEMB      74              0.0000000000
      9094        74  PYPG      C27            40.0374513146        5.8069557239        7.2417726200  MEMB      74              0.0000000000
      9095        74  PYPG      H7R            39.3353120628        6.1642304790        6.4526285887  MEMB      74              0.0000000000
      9096        74  PYPG      H7S            39.5609349782        4.9304527455        7.7298839146  MEMB      74              0.0000000000
      9097        74  PYPG      C28            41.3251872590        5.2800009932        6.5801308804  MEMB      74              0.0000000000
      9098        74  PYPG      H8R            42.0727709798        5.0747621632        7.3728331826  MEMB      74              0.0000000000
      9099        74  PYPG      H8S            41.7580223113        6.0821240767        5.9509882182  MEMB      74              0.0000000000
      9100        74  PYPG      C29            41.1040889306        3.9945148651        5.8133082685  MEMB      74              0.0000000000
      9101        74  PYPG      H9R            40.8367835238        3.1390526934        6.4355315377  MEMB      74              0.0000000000
      9102        74  PYPG      C210           40.9616388554        3.8599425276        4.4882944799  MEMB      74              0.0000000000
      9103        74  PYPG      H10R           40.9006989277        2.8922921322        3.9646838123  MEMB      74              0.0000000000
      9104        74  PYPG      C211           41.0000443892        4.9715766770        3.5588556711  MEMB      74              0.0000000000
      9105        74  PYPG      H11R           41.4488211794        4.5754402958        2.6487525803  MEMB      74              0.0000000000
      9106        74  PYPG      H11S           41.5643806477        5.7608841718        4.0346742029  MEMB      74              0.0000000000
      9107        74  PYPG      C212           39.9688834629        6.0011842185        3.2451701029  MEMB      74              0.0000000000
      9108        74  PYPG      H12R           39.5297611537        6.3111027189        4.2052951841  MEMB      74              0.0000000000
      9109        74  PYPG      H12S           39.3185224064        5.3498233167        2.7044472888  MEMB      74              0.0000000000
      9110        74  PYPG      C213           40.4592446164        7.2229258646        2.4575196654  MEMB      74              0.0000000000
      9111        74  PYPG      H13R           41.3206889656        7.7699248769        2.9095393904  MEMB      74              0.0000000000
      9112        74  PYPG      H13S           39.6125970575        7.9473393751        2.4376966320  MEMB      74              0.0000000000
      9113        74  PYPG      C214           40.8334353208        6.9278595980        1.0067969640  MEMB      74              0.0000000000
      9114        74  PYPG      H14R           41.8026733647        6.4807607040        0.7326060525  MEMB      74              0.0000000000
      9115        74  PYPG      H14S           40.0659256561        6.2408069764        0.6236984264  MEMB      74              0.0000000000
      9116        74  PYPG      C215           40.9741974784        8.2909317461        0.4400207007  MEMB      74              0.0000000000
      9117        74  PYPG      H15R           41.8424148508        8.8147758272        0.8848822408  MEMB      74              0.0000000000
      9118        74  PYPG      H15S           39.9522686558        8.7025925930        0.6033986619  MEMB      74              0.0000000000
      9119        74  PYPG      C216           41.3385981098        8.5375212461       -0.9456876883  MEMB      74              0.0000000000
      9120        74  PYPG      H16R           41.1367736551        9.3708203156       -1.6303915859  MEMB      74              0.0000000000
      9121        74  PYPG      H16S           40.3176944713        8.3640994467       -1.2885998483  MEMB      74              0.0000000000
      9122        74  PYPG      H16T           42.1085627423        7.8483298810       -1.3314275502  MEMB      74              0.0000000000
      9123        74  PYPG      C33            39.5876596760        2.0826150732        9.9034336472  MEMB      74              0.0000000000
      9124        74  PYPG      H3X            40.3988624505        2.4482817621        9.2361386188  MEMB      74              0.0000000000
      9125        74  PYPG      H3Y            38.8732469122        2.9279330531       10.0638741340  MEMB      74              0.0000000000
      9126        74  PYPG      C34            38.9825056540        0.8760536837        9.1760580814  MEMB      74              0.0000000000
      9127        74  PYPG      H4X            38.0580363446        0.5749262972        9.7380899008  MEMB      74              0.0000000000
      9128        74  PYPG      H4Y            39.7066374074        0.0657693045        9.1225112689  MEMB      74              0.0000000000
      9129        74  PYPG      C35            38.7544652212        1.0499209318        7.6971124086  MEMB      74              0.0000000000
      9130        74  PYPG      H5X            38.2486080975        0.2068571573        7.2225436037  MEMB      74              0.0000000000
      9131        74  PYPG      H5Y            39.5187414983        1.4464081973        7.0026698551  MEMB      74              0.0000000000
      9132        74  PYPG      C36            37.8030469667        2.0903399122        7.6813582225  MEMB      74              0.0000000000
      9133        74  PYPG      H6X            38.1372908082        2.9181029744        8.2772360625  MEMB      74              0.0000000000
      9134        74  PYPG      H6Y            36.9720546230        1.7351241053        8.3573866976  MEMB      74              0.0000000000
      9135        74  PYPG      C37            37.4594507093        2.4684916397        6.2275490450  MEMB      74              0.0000000000
      9136        74  PYPG      H7X            37.3909584155        1.5752633331        5.8976274258  MEMB      74              0.0000000000
      9137        74  PYPG      H7Y            36.4805778555        2.3993146694        5.7529678761  MEMB      74              0.0000000000
      9138        74  PYPG      C38            38.2196546003        3.2791513438        5.3013841016  MEMB      74              0.0000000000
      9139        74  PYPG      H8X            38.9636235956        2.6239240676        4.8387482121  MEMB      74              0.0000000000
      9140        74  PYPG      H8Y            38.4246063750        4.2190370261        5.8551769738  MEMB      74              0.0000000000
      9141        74  PYPG      C39            37.4409248455        3.8305449052        4.1736314838  MEMB      74              0.0000000000
      9142        74  PYPG      H9X            37.7195671803        4.8941641836        4.0973549167  MEMB      74              0.0000000000
      9143        74  PYPG      H9Y            36.4431541064        3.7109482775        4.5013398455  MEMB      74              0.0000000000
      9144        74  PYPG      C310           37.2850855491        3.1109938638        2.8894512511  MEMB      74              0.0000000000
      9145        74  PYPG      H10X           36.5225360344        2.2507695004        3.0260497243  MEMB      74              0.0000000000
      9146        74  PYPG      H10Y           38.2741944327        2.8702624489        2.5288966495  MEMB      74              0.0000000000
      9147        74  PYPG      C311           36.8399971920        3.9906919968        1.7028035767  MEMB      74              0.0000000000
      9148        74  PYPG      H11X           35.8272867802        3.6882775483        1.9766062615  MEMB      74              0.0000000000
      9149        74  PYPG      H11Y           36.9155030790        3.3435441565        0.8286837539  MEMB      74              0.0000000000
      9150        74  PYPG      C312           37.1988046018        5.5761198457        1.4100512669  MEMB      74              0.0000000000
      9151        74  PYPG      H12X           36.9641905997        6.3758955528        2.1447795398  MEMB      74              0.0000000000
      9152        74  PYPG      H12Y           38.2593283420        5.4819574388        1.3437483377  MEMB      74              0.0000000000
      9153        74  PYPG      C313           36.9476369124        6.4104689110        0.0618646495  MEMB      74              0.0000000000
      9154        74  PYPG      H13X           36.0871385556        7.0156388406        0.3393472636  MEMB      74              0.0000000000
      9155        74  PYPG      H13Y           36.7024701219        7.4635462937       -0.1438502783  MEMB      74              0.0000000000
      9156        74  PYPG      C314           36.7379381695        5.4510288500       -1.1373563717  MEMB      74              0.0000000000
      9157        74  PYPG      H14X           36.2835980246        4.4899909474       -0.8238423553  MEMB      74              0.0000000000
      9158        74  PYPG      H14Y           36.0990276818        5.8803461604       -1.9733973673  MEMB      74              0.0000000000
      9159        74  PYPG      C315           38.0640739375        5.1703993052       -1.4270166641  MEMB      74              0.0000000000
      9160        74  PYPG      H15X           38.0430584752        5.8390285303       -2.3053006396  MEMB      74              0.0000000000
      9161        74  PYPG      H15Y           38.6827135805        5.5011432890       -0.5677264004  MEMB      74              0.0000000000
      9162        74  PYPG      C316           38.5699153520        3.8495415881       -1.8183723259  MEMB      74              0.0000000000
      9163        74  PYPG      H16X           38.2913898414        3.0480128353       -1.1102040972  MEMB      74              0.0000000000
      9164        74  PYPG      H16Y           39.6617167721        3.8526188851       -1.8873474646  MEMB      74              0.0000000000
      9165        74  PYPG      H16Z           38.2495244253        3.7636799688       -2.8699631003  MEMB      74              0.0000000000
      9166        75  POPE      N             -38.2695701231      -10.1040848884       20.0838766539  MEMB      75              0.0000000000
      9167        75  POPE      HN1           -38.0828698831      -10.3569711320       19.0685292473  MEMB      75              0.0000000000
      9168        75  POPE      HN2           -38.9296038746       -9.3157132823       20.0921793194  MEMB      75              0.0000000000
      9169        75  POPE      HN3           -37.3489771078       -9.8593898930       20.5104657607  MEMB      75              0.0000000000
      9170        75  POPE      C12           -38.7977814504      -11.2855032918       20.8518966378  MEMB      75              0.0000000000
      9171        75  POPE      H12A          -39.8605201967      -11.4361872778       20.5730685976  MEMB      75              0.0000000000
      9172        75  POPE      H12B          -38.7289910202      -11.0444461706       21.9342261504  MEMB      75              0.0000000000
      9173        75  POPE      C11           -37.9649959177      -12.5425872860       20.5797652586  MEMB      75              0.0000000000
      9174        75  POPE      H11A          -38.4361513574      -13.3671071938       21.1675655974  MEMB      75              0.0000000000
      9175        75  POPE      H11B          -36.9329629857      -12.4038769274       20.9739712530  MEMB      75              0.0000000000
      9176        75  POPE      P             -36.8983171852      -12.4949577910       18.1194470940  MEMB      75              0.0000000000
      9177        75  POPE      O13           -35.5833092570      -12.7902086483       18.7165028187  MEMB      75              0.0000000000
      9178        75  POPE      O14           -37.1977561312      -11.0945791319       17.7578303666  MEMB      75              0.0000000000
      9179        75  POPE      O11           -37.2636482681      -13.4482158044       16.9290119321  MEMB      75              0.0000000000
      9180        75  POPE      O12           -37.9743317190      -12.8898348636       19.2028514587  MEMB      75              0.0000000000
      9181        75  POPE      C1            -37.2328399324      -14.8623245366       17.0024145228  MEMB      75              0.0000000000
      9182        75  POPE      HA            -37.9179085312      -15.2232609319       17.7974583497  MEMB      75              0.0000000000
      9183        75  POPE      HB            -36.2021249231      -15.1845750203       17.2753154244  MEMB      75              0.0000000000
      9184        75  POPE      C2            -37.6912729937      -15.5050882259       15.6515702014  MEMB      75              0.0000000000
      9185        75  POPE      HS            -37.5131110422      -16.6002569286       15.6821241365  MEMB      75              0.0000000000
      9186        75  POPE      O21           -36.9934075672      -14.9852579585       14.5501027218  MEMB      75              0.0000000000
      9187        75  POPE      C21           -35.7601685484      -15.3811175779       14.4150976836  MEMB      75              0.0000000000
      9188        75  POPE      O22           -35.1913785438      -16.1822404543       15.1271216656  MEMB      75              0.0000000000
      9189        75  POPE      C22           -35.2270484538      -14.7513256821       13.1647347039  MEMB      75              0.0000000000
      9190        75  POPE      H2R           -35.0921518785      -15.4479396136       12.3154526753  MEMB      75              0.0000000000
      9191        75  POPE      H2S           -34.2084899799      -14.4101688581       13.4279888522  MEMB      75              0.0000000000
      9192        75  POPE      C3            -39.1996541142      -15.2966267682       15.3392895826  MEMB      75              0.0000000000
      9193        75  POPE      HX            -39.7290207085      -15.6075748930       16.2636602670  MEMB      75              0.0000000000
      9194        75  POPE      HY            -39.5133634438      -15.9805071845       14.5150118244  MEMB      75              0.0000000000
      9195        75  POPE      O31           -39.5666133218      -13.9245307860       15.0866712256  MEMB      75              0.0000000000
      9196        75  POPE      C31           -39.7974697081      -13.5266262035       13.8561706507  MEMB      75              0.0000000000
      9197        75  POPE      O32           -39.6862788743      -14.1847838466       12.8333536291  MEMB      75              0.0000000000
      9198        75  POPE      C32           -40.3704682848      -12.1008047339       13.9154147850  MEMB      75              0.0000000000
      9199        75  POPE      H2X           -39.8597147205      -11.5226566071       14.7100939083  MEMB      75              0.0000000000
      9200        75  POPE      H2Y           -41.4525659296      -12.1599831491       14.1667001974  MEMB      75              0.0000000000
      9201        75  POPE      C23           -36.3019842597      -13.7391145907       12.7276131263  MEMB      75              0.0000000000
      9202        75  POPE      H3R           -36.6743024461      -13.0094926930       13.5094104269  MEMB      75              0.0000000000
      9203        75  POPE      H3S           -37.0666773261      -14.1545466566       12.0509675485  MEMB      75              0.0000000000
      9204        75  POPE      C24           -35.7313988030      -12.8624371178       11.8143516860  MEMB      75              0.0000000000
      9205        75  POPE      H4R           -35.0249662510      -13.4037643335       11.1415254645  MEMB      75              0.0000000000
      9206        75  POPE      H4S           -35.1219122334      -12.4099661261       12.6062391111  MEMB      75              0.0000000000
      9207        75  POPE      C25           -36.5867716563      -11.7237104366       11.2684887379  MEMB      75              0.0000000000
      9208        75  POPE      H5R           -35.9309234045      -11.3002409555       10.5506237446  MEMB      75              0.0000000000
      9209        75  POPE      H5S           -36.7535400708      -10.8440687327       11.9228536502  MEMB      75              0.0000000000
      9210        75  POPE      C26           -37.4347964769      -12.0119444524       10.0956265919  MEMB      75              0.0000000000
      9211        75  POPE      H6R           -37.7136098261      -11.0453008769        9.6081938835  MEMB      75              0.0000000000
      9212        75  POPE      H6S           -38.3039304632      -12.4757588045       10.5813158588  MEMB      75              0.0000000000
      9213        75  POPE      C27           -36.7306091232      -12.9577366617        9.0945869582  MEMB      75              0.0000000000
      9214        75  POPE      H7R           -36.1121094751      -13.7235935593        9.5919619926  MEMB      75              0.0000000000
      9215        75  POPE      H7S           -36.0395901504      -12.4383159231        8.3871183326  MEMB      75              0.0000000000
      9216        75  POPE      C28           -37.8132259215      -13.7690294994        8.4519667286  MEMB      75              0.0000000000
      9217        75  POPE      H8R           -38.4653659556      -14.1380649547        9.2804790698  MEMB      75              0.0000000000
      9218        75  POPE      H8S           -37.5216329835      -14.5955726753        7.7963375362  MEMB      75              0.0000000000
      9219        75  POPE      C29           -38.5347794952      -12.7750133595        7.6783000291  MEMB      75              0.0000000000
      9220        75  POPE      H91           -39.1847239090      -12.2117590069        8.3518111933  MEMB      75              0.0000000000
      9221        75  POPE      C210          -38.3812280972      -12.4397556906        6.4003689182  MEMB      75              0.0000000000
      9222        75  POPE      H101          -39.0552469461      -11.7581522576        5.9101716784  MEMB      75              0.0000000000
      9223        75  POPE      C211          -37.4603735886      -12.9342339727        5.3681231801  MEMB      75              0.0000000000
      9224        75  POPE      H11R          -36.7346631089      -13.6560767486        5.8457269109  MEMB      75              0.0000000000
      9225        75  POPE      H11S          -36.9962642641      -12.2054322255        4.7039466439  MEMB      75              0.0000000000
      9226        75  POPE      C212          -38.2307696633      -13.5409256878        4.2436757305  MEMB      75              0.0000000000
      9227        75  POPE      H12R          -38.2157105994      -14.3006596319        4.9786252201  MEMB      75              0.0000000000
      9228        75  POPE      H12S          -37.6855737417      -14.0114970792        3.4831149560  MEMB      75              0.0000000000
      9229        75  POPE      C213          -39.4957310828      -13.1692828397        3.4725967785  MEMB      75              0.0000000000
      9230        75  POPE      H13R          -40.3036678033      -12.9009420161        4.1314823745  MEMB      75              0.0000000000
      9231        75  POPE      H13S          -39.9517158165      -13.9275626598        2.7740021523  MEMB      75              0.0000000000
      9232        75  POPE      C214          -39.0302343864      -12.1601877252        2.5096947195  MEMB      75              0.0000000000
      9233        75  POPE      H14R          -38.7895766774      -11.3123095316        3.1889884005  MEMB      75              0.0000000000
      9234        75  POPE      H14S          -39.8772703428      -11.9434337227        1.8317820079  MEMB      75              0.0000000000
      9235        75  POPE      C215          -37.7408555684      -12.5985676890        1.7854420403  MEMB      75              0.0000000000
      9236        75  POPE      H15R          -36.8586324083      -12.7073177522        2.4475068972  MEMB      75              0.0000000000
      9237        75  POPE      H15S          -37.5368204334      -11.8303601567        1.1020913167  MEMB      75              0.0000000000
      9238        75  POPE      C216          -37.7873849492      -13.6485938379        0.7050405922  MEMB      75              0.0000000000
      9239        75  POPE      H16R          -38.6602016279      -13.3087707093        0.1666798031  MEMB      75              0.0000000000
      9240        75  POPE      H16S          -38.0609013979      -14.6167764685        1.0829437547  MEMB      75              0.0000000000
      9241        75  POPE      C217          -36.5271459676      -13.7321400147       -0.1847648256  MEMB      75              0.0000000000
      9242        75  POPE      H17R          -36.5463104851      -12.9571739146       -0.9809461578  MEMB      75              0.0000000000
      9243        75  POPE      H17S          -36.5913506100      -14.7020933200       -0.7160766713  MEMB      75              0.0000000000
      9244        75  POPE      C218          -35.1961994765      -13.6818296284        0.5786024333  MEMB      75              0.0000000000
      9245        75  POPE      H18R          -35.0155261591      -12.7106568889        1.0221628007  MEMB      75              0.0000000000
      9246        75  POPE      H18S          -34.3168380471      -13.8781239480       -0.0591577269  MEMB      75              0.0000000000
      9247        75  POPE      H18T          -35.2098190111      -14.3854682418        1.4277976114  MEMB      75              0.0000000000
      9248        75  POPE      C33           -40.2146701296      -11.3404690133       12.5857991706  MEMB      75              0.0000000000
      9249        75  POPE      H3X           -40.4752535281      -12.0390741188       11.7877045532  MEMB      75              0.0000000000
      9250        75  POPE      H3Y           -39.1594699340      -11.0874689525       12.4058949323  MEMB      75              0.0000000000
      9251        75  POPE      C34           -41.0395541571      -10.0527083007       12.5990008781  MEMB      75              0.0000000000
      9252        75  POPE      H4X           -40.6666775074       -9.3962066357       13.4193159620  MEMB      75              0.0000000000
      9253        75  POPE      H4Y           -42.0644357287      -10.3579193172       12.8033510839  MEMB      75              0.0000000000
      9254        75  POPE      C35           -41.0791927517       -9.1808664797       11.3669252307  MEMB      75              0.0000000000
      9255        75  POPE      H5X           -41.6065175856       -8.2299841450       11.5981350811  MEMB      75              0.0000000000
      9256        75  POPE      H5Y           -41.6605983991       -9.5570416440       10.5219901619  MEMB      75              0.0000000000
      9257        75  POPE      C36           -39.7091119658       -8.9473804398       10.8479077137  MEMB      75              0.0000000000
      9258        75  POPE      H6X           -39.0320524732       -9.8064781667       10.6964839152  MEMB      75              0.0000000000
      9259        75  POPE      H6Y           -39.2565951203       -8.3453308169       11.6714826173  MEMB      75              0.0000000000
      9260        75  POPE      C37           -39.9091190109       -8.2787049774        9.5048302441  MEMB      75              0.0000000000
      9261        75  POPE      H7X           -40.2587406717       -7.2981895112        9.8292087288  MEMB      75              0.0000000000
      9262        75  POPE      H7Y           -40.6515325961       -8.6611107861        8.7973046591  MEMB      75              0.0000000000
      9263        75  POPE      C38           -38.7155018263       -8.4086538651        8.6390869225  MEMB      75              0.0000000000
      9264        75  POPE      H8X           -38.1755529118       -9.3588788462        8.6164906248  MEMB      75              0.0000000000
      9265        75  POPE      H8Y           -37.9202068845       -8.1753965943        9.2179537775  MEMB      75              0.0000000000
      9266        75  POPE      C39           -38.7023412222       -7.6144605004        7.3772808727  MEMB      75              0.0000000000
      9267        75  POPE      H9X           -37.9095706725       -6.9517754770        7.3544550178  MEMB      75              0.0000000000
      9268        75  POPE      H9Y           -39.3555494239       -6.7335277178        7.2466416222  MEMB      75              0.0000000000
      9269        75  POPE      C310          -38.6061943568       -8.6385689589        6.2732116023  MEMB      75              0.0000000000
      9270        75  POPE      H10X          -38.8948686103       -8.0598434619        5.3651217910  MEMB      75              0.0000000000
      9271        75  POPE      H10Y          -39.3866776596       -9.2235046626        6.7078129381  MEMB      75              0.0000000000
      9272        75  POPE      C311          -37.4823896666       -9.7836709313        6.0999852113  MEMB      75              0.0000000000
      9273        75  POPE      H11X          -37.8531935733      -10.4044623552        5.2485915908  MEMB      75              0.0000000000
      9274        75  POPE      H11Y          -37.1843722058      -10.2808310496        7.0269540274  MEMB      75              0.0000000000
      9275        75  POPE      C312          -36.0649245789       -9.4709145472        5.6211487195  MEMB      75              0.0000000000
      9276        75  POPE      H12X          -35.5110114928       -8.8602666244        6.2130417949  MEMB      75              0.0000000000
      9277        75  POPE      H12Y          -36.8460677986       -8.9087370668        5.1049412754  MEMB      75              0.0000000000
      9278        75  POPE      C313          -34.7061376273      -10.0156711072        4.7804964348  MEMB      75              0.0000000000
      9279        75  POPE      H13X          -35.3494004761      -10.7885296347        4.4266416319  MEMB      75              0.0000000000
      9280        75  POPE      H13Y          -34.2548155795      -10.2587216428        5.7033589739  MEMB      75              0.0000000000
      9281        75  POPE      C314          -33.6012878408       -9.2018503379        3.6062551786  MEMB      75              0.0000000000
      9282        75  POPE      H14X          -32.7009540591       -8.9357759246        4.1469097852  MEMB      75              0.0000000000
      9283        75  POPE      H14Y          -33.5410806109       -8.1445078663        3.1068298973  MEMB      75              0.0000000000
      9284        75  POPE      C315          -33.8057226958       -9.4689434818        2.0915811326  MEMB      75              0.0000000000
      9285        75  POPE      H15X          -33.3917876752      -10.2928380853        1.6309622392  MEMB      75              0.0000000000
      9286        75  POPE      H15Y          -33.5625228491       -8.6835416999        1.2423013713  MEMB      75              0.0000000000
      9287        75  POPE      C316          -34.9817780966      -10.2996305041        1.8933917247  MEMB      75              0.0000000000
      9288        75  POPE      H16X          -35.4002476100      -11.2692776531        1.8613762805  MEMB      75              0.0000000000
      9289        75  POPE      H16Y          -35.0285443913       -9.5874594954        1.0453070091  MEMB      75              0.0000000000
      9290        75  POPE      H16Z          -35.9973117828      -10.2302860803        2.2807622772  MEMB      75              0.0000000000
      9291        76  QMPE      N              17.7322607591       34.5761464287       21.0483018570  MEMB      76              0.0000000000
      9292        76  QMPE      HN1            16.8468441746       34.5529746708       20.5161519424  MEMB      76              0.0000000000
      9293        76  QMPE      HN2            18.2602248615       33.7067659111       20.7783290054  MEMB      76              0.0000000000
      9294        76  QMPE      HN3            17.6035625869       34.6410818231       22.0711782715  MEMB      76              0.0000000000
      9295        76  QMPE      C12            18.4820010727       35.7894741768       20.6193128228  MEMB      76              0.0000000000
      9296        76  QMPE      H12A           19.3936015232       35.8525432551       21.2489927962  MEMB      76              0.0000000000
      9297        76  QMPE      H12B           17.8466997063       36.6796246102       20.7651048449  MEMB      76              0.0000000000
      9298        76  QMPE      C11            18.8022060546       35.6594434818       19.1516939490  MEMB      76              0.0000000000
      9299        76  QMPE      H11A           19.3088422193       36.5626136120       18.7440445205  MEMB      76              0.0000000000
      9300        76  QMPE      H11B           17.8236572804       35.5623391363       18.6101437390  MEMB      76              0.0000000000
      9301        76  QMPE      P              19.2761573564       33.2508644290       18.2362718723  MEMB      76              0.0000000000
      9302        76  QMPE      O13            18.0239957718       33.5450098765       17.5369694746  MEMB      76              0.0000000000
      9303        76  QMPE      O14            19.2825883941       32.1404699350       19.2014988785  MEMB      76              0.0000000000
      9304        76  QMPE      O11            20.4518089187       33.1380093810       17.2485930199  MEMB      76              0.0000000000
      9305        76  QMPE      O12            19.6731915724       34.5423404086       19.0453837156  MEMB      76              0.0000000000
      9306        76  QMPE      C1             21.7421276023       33.2062881540       17.8087589449  MEMB      76              0.0000000000
      9307        76  QMPE      HA             21.9108185670       32.7050882525       18.7871518987  MEMB      76              0.0000000000
      9308        76  QMPE      HB             22.0245972697       34.2692225342       18.0118599369  MEMB      76              0.0000000000
      9309        76  QMPE      C2             22.7029288144       32.5750239442       16.8371808724  MEMB      76              0.0000000000
      9310        76  QMPE      HS             23.5340366082       32.4984645350       17.5302293735  MEMB      76              0.0000000000
      9311        76  QMPE      O21            22.6905538327       33.4898977826       15.7227709223  MEMB      76              0.0000000000
      9312        76  QMPE      C21            23.1716193239       34.7106931932       16.0458307937  MEMB      76              0.0000000000
      9313        76  QMPE      O22            23.9160468995       34.9280417259       16.9789286866  MEMB      76              0.0000000000
      9314        76  QMPE      C22            23.0846468267       35.6052281753       14.8001863985  MEMB      76              0.0000000000
      9315        76  QMPE      H2R            22.2317065231       36.2567331668       14.9940803087  MEMB      76              0.0000000000
      9316        76  QMPE      H2S            22.8732829739       34.9896474413       13.8975919287  MEMB      76              0.0000000000
      9317        76  QMPE      C3             22.5791944399       31.1139996464       16.3049342784  MEMB      76              0.0000000000
      9318        76  QMPE      HX             22.7732772959       30.4669034314       17.1867649843  MEMB      76              0.0000000000
      9319        76  QMPE      HY             23.3839523417       30.8618798379       15.5651647074  MEMB      76              0.0000000000
      9320        76  QMPE      O31            21.2844688117       30.8007442097       15.8248556624  MEMB      76              0.0000000000
      9321        76  QMPE      C31            21.0193547253       31.2762483954       14.6169627349  MEMB      76              0.0000000000
      9322        76  QMPE      O32            21.8342618357       31.5606204428       13.7670175652  MEMB      76              0.0000000000
      9323        76  QMPE      C32            19.5274708605       31.1458633516       14.4432663506  MEMB      76              0.0000000000
      9324        76  QMPE      H2X            19.3373213549       30.0539535949       14.4571790036  MEMB      76              0.0000000000
      9325        76  QMPE      H2Y            19.0527154408       31.6095071466       15.3345597153  MEMB      76              0.0000000000
      9326        76  QMPE      C23            24.2778900315       36.5217180763       14.4393337233  MEMB      76              0.0000000000
      9327        76  QMPE      H3R            25.2231549832       36.1310807481       14.0213814786  MEMB      76              0.0000000000
      9328        76  QMPE      H3S            24.7389068567       37.1114001635       15.2505905865  MEMB      76              0.0000000000
      9329        76  QMPE      C24            23.7742597441       37.3120905703       13.2750334034  MEMB      76              0.0000000000
      9330        76  QMPE      H4R            24.7815911724       37.5098488859       12.8230058438  MEMB      76              0.0000000000
      9331        76  QMPE      H4S            23.1786369051       38.1858625981       13.5533478550  MEMB      76              0.0000000000
      9332        76  QMPE      C25            23.2827716750       36.6859892553       12.0130043635  MEMB      76              0.0000000000
      9333        76  QMPE      H5R            22.7327626207       35.7881594837       11.7635803894  MEMB      76              0.0000000000
      9334        76  QMPE      H5S            24.0399011422       35.9525268065       12.2675964477  MEMB      76              0.0000000000
      9335        76  QMPE      C26            23.4152899826       37.6336772208       10.8104946393  MEMB      76              0.0000000000
      9336        76  QMPE      H6R            24.3730042464       38.1176002481       10.6277957530  MEMB      76              0.0000000000
      9337        76  QMPE      H6S            22.6477791922       38.4255568495       10.9208475293  MEMB      76              0.0000000000
      9338        76  QMPE      C27            23.2670066492       36.9752352715        9.4848314667  MEMB      76              0.0000000000
      9339        76  QMPE      H7R            22.2684777490       36.4937848641        9.4813471900  MEMB      76              0.0000000000
      9340        76  QMPE      H7S            23.9734049192       36.2353228690        9.0963184462  MEMB      76              0.0000000000
      9341        76  QMPE      C28            23.5852198278       37.9155176987        8.3852203836  MEMB      76              0.0000000000
      9342        76  QMPE      H8R            22.9079625072       38.7680702053        8.4972217236  MEMB      76              0.0000000000
      9343        76  QMPE      H8S            23.4011968026       37.0812013476        7.6761478356  MEMB      76              0.0000000000
      9344        76  QMPE      C29            24.8258908636       38.4090245460        7.7151568618  MEMB      76              0.0000000000
      9345        76  QMPE      H9R            25.5975054971       37.6916535881        7.6090980606  MEMB      76              0.0000000000
      9346        76  QMPE      C217           24.9766379409       39.8955942928        7.6961101835  MEMB      76              0.0000000000
      9347        76  QMPE      H17R           24.1539706785       40.3582683683        8.2269806120  MEMB      76              0.0000000000
      9348        76  QMPE      H17S           25.8876368779       40.4003358257        7.4755576393  MEMB      76              0.0000000000
      9349        76  QMPE      C210           24.7930721460       39.1570620301        6.3891756646  MEMB      76              0.0000000000
      9350        76  QMPE      H10R           25.7078036755       39.0167573979        5.7888982747  MEMB      76              0.0000000000
      9351        76  QMPE      C211           23.8202273806       40.0465934840        5.7363288660  MEMB      76              0.0000000000
      9352        76  QMPE      H11R           23.1045814350       39.3949365709        5.3699185501  MEMB      76              0.0000000000
      9353        76  QMPE      H11S           23.1210666549       40.6557825265        6.3212669780  MEMB      76              0.0000000000
      9354        76  QMPE      C212           23.8115983919       39.9990620616        4.2638894783  MEMB      76              0.0000000000
      9355        76  QMPE      H12R           23.9314417968       39.0740226175        3.6483875632  MEMB      76              0.0000000000
      9356        76  QMPE      H12S           24.3676957491       40.8922973388        3.9963426603  MEMB      76              0.0000000000
      9357        76  QMPE      C213           22.7218857196       40.7207437477        3.7691049040  MEMB      76              0.0000000000
      9358        76  QMPE      H13R           22.9767397598       41.0053573662        2.7296843351  MEMB      76              0.0000000000
      9359        76  QMPE      H13S           22.7126291891       41.4764484706        4.6041844039  MEMB      76              0.0000000000
      9360        76  QMPE      C214           21.3969541820       40.3389607907        3.8005343774  MEMB      76              0.0000000000
      9361        76  QMPE      H14R           20.5540767118       41.0612090662        3.6724559761  MEMB      76              0.0000000000
      9362        76  QMPE      H14S           21.2027455595       40.2746380784        4.8781723449  MEMB      76              0.0000000000
      9363        76  QMPE      C215           21.2506227872       39.4318899200        2.6682956264  MEMB      76              0.0000000000
      9364        76  QMPE      H15R           21.7050372035       38.4416802717        2.6988535789  MEMB      76              0.0000000000
      9365        76  QMPE      H15S           21.2584409157       39.6465230575        1.5960989227  MEMB      76              0.0000000000
      9366        76  QMPE      C216           19.9166868439       39.4243866822        2.9033070331  MEMB      76              0.0000000000
      9367        76  QMPE      H16R           19.1121694891       40.0678615506        3.1119426488  MEMB      76              0.0000000000
      9368        76  QMPE      H16S           19.8089163802       39.1728272208        3.9689069882  MEMB      76              0.0000000000
      9369        76  QMPE      H16T           19.6320019500       38.6916999140        2.2061431437  MEMB      76              0.0000000000
      9370        76  QMPE      C33            19.0236007043       31.7961533850       13.1353675144  MEMB      76              0.0000000000
      9371        76  QMPE      H3X            17.9657801792       31.4908403179       12.9796285640  MEMB      76              0.0000000000
      9372        76  QMPE      H3Y            19.6208770124       31.4148364299       12.2783137101  MEMB      76              0.0000000000
      9373        76  QMPE      C34            19.0753265877       33.3367885011       13.1916713057  MEMB      76              0.0000000000
      9374        76  QMPE      H4X            20.1086026005       33.6482806893       13.4188678815  MEMB      76              0.0000000000
      9375        76  QMPE      H4Y            18.4279090142       33.6574974053       14.0503462880  MEMB      76              0.0000000000
      9376        76  QMPE      C35            18.5332226471       34.1145666288       11.9662719395  MEMB      76              0.0000000000
      9377        76  QMPE      H5X            18.5991448719       35.2090238060       12.1056713000  MEMB      76              0.0000000000
      9378        76  QMPE      H5Y            17.4852836024       33.8521710684       12.0951747395  MEMB      76              0.0000000000
      9379        76  QMPE      C36            18.9264098677       33.7361903210       10.5247321767  MEMB      76              0.0000000000
      9380        76  QMPE      H6X            18.0664099638       34.0228965432        9.8679605732  MEMB      76              0.0000000000
      9381        76  QMPE      H6Y            19.0418616714       32.6359284886       10.4861815647  MEMB      76              0.0000000000
      9382        76  QMPE      C37            20.1790286175       34.4344807469        9.9554739283  MEMB      76              0.0000000000
      9383        76  QMPE      H7X            20.0148022443       35.5327870742        9.8994300656  MEMB      76              0.0000000000
      9384        76  QMPE      H7Y            21.0490209825       34.2589325428       10.6283128870  MEMB      76              0.0000000000
      9385        76  QMPE      C38            20.6142462663       33.9142783427        8.5735519713  MEMB      76              0.0000000000
      9386        76  QMPE      H8X            21.5979132754       34.3952197221        8.3390088299  MEMB      76              0.0000000000
      9387        76  QMPE      H8Y            20.7687249684       32.8175351937        8.6386961572  MEMB      76              0.0000000000
      9388        76  QMPE      C39            19.6198053459       34.1208179683        7.4319677623  MEMB      76              0.0000000000
      9389        76  QMPE      H9X            18.5703770072       34.2571916412        7.7338387120  MEMB      76              0.0000000000
      9390        76  QMPE      H9Y            19.7031732572       33.3165443473        6.6604334549  MEMB      76              0.0000000000
      9391        76  QMPE      C310           19.9951617431       35.2791882507        6.6337455195  MEMB      76              0.0000000000
      9392        76  QMPE      H10X           20.3872838989       36.0529792896        7.3267252767  MEMB      76              0.0000000000
      9393        76  QMPE      H10Y           19.0713860786       35.7298469198        6.1726723859  MEMB      76              0.0000000000
      9394        76  QMPE      C311           21.0424000829       34.7336727223        5.6131333859  MEMB      76              0.0000000000
      9395        76  QMPE      H11X           21.7727717375       34.0495600775        6.0054381313  MEMB      76              0.0000000000
      9396        76  QMPE      H11Y           21.8030175074       35.4940332695        5.5187663431  MEMB      76              0.0000000000
      9397        76  QMPE      C312           20.5364206128       34.3533017423        4.1754096804  MEMB      76              0.0000000000
      9398        76  QMPE      H12X           19.6565932133       34.9411361105        4.0328989729  MEMB      76              0.0000000000
      9399        76  QMPE      H12Y           19.8064392391       33.5664601250        4.0566324201  MEMB      76              0.0000000000
      9400        76  QMPE      C313           21.6167684624       34.5564853964        3.0405698916  MEMB      76              0.0000000000
      9401        76  QMPE      H13X           22.2815892875       35.4598356357        2.9660485456  MEMB      76              0.0000000000
      9402        76  QMPE      H13Y           22.3484656627       33.8227681333        3.3889250042  MEMB      76              0.0000000000
      9403        76  QMPE      C314           21.1797758721       34.4254254560        1.5746672044  MEMB      76              0.0000000000
      9404        76  QMPE      H14X           20.8378860932       33.3780881748        1.5552854176  MEMB      76              0.0000000000
      9405        76  QMPE      H14Y           22.0991283405       34.5896849687        0.9691599879  MEMB      76              0.0000000000
      9406        76  QMPE      C315           20.0547902847       35.2847539780        0.9719044464  MEMB      76              0.0000000000
      9407        76  QMPE      H15X           19.8410088468       35.0712710639       -0.0907148190  MEMB      76              0.0000000000
      9408        76  QMPE      H15Y           19.1229816576       35.0573733860        1.5265902686  MEMB      76              0.0000000000
      9409        76  QMPE      H15Z           20.2799537872       36.3699566709        0.9882763296  MEMB      76              0.0000000000
      9410        77  PMPE      N             -24.2708710944       28.9863129231       21.4192077121  MEMB      77              0.0000000000
      9411        77  PMPE      HN1           -23.9771022671       28.3833511506       20.6285341534  MEMB      77              0.0000000000
      9412        77  PMPE      HN2           -23.5585148696       29.7366424089       21.4793133246  MEMB      77              0.0000000000
      9413        77  PMPE      HN3           -24.3259908052       28.4265829411       22.2983369457  MEMB      77              0.0000000000
      9414        77  PMPE      C12           -25.5810842715       29.6163192290       21.0038014177  MEMB      77              0.0000000000
      9415        77  PMPE      H12A          -26.1052444018       29.9774549300       21.9096362722  MEMB      77              0.0000000000
      9416        77  PMPE      H12B          -26.2108534312       28.8292191737       20.5416250668  MEMB      77              0.0000000000
      9417        77  PMPE      C11           -25.2882497824       30.7752032325       20.0285247805  MEMB      77              0.0000000000
      9418        77  PMPE      H11A          -24.7683088759       31.5758688996       20.6094973432  MEMB      77              0.0000000000
      9419        77  PMPE      H11B          -26.2386186673       31.1821184452       19.6141753558  MEMB      77              0.0000000000
      9420        77  PMPE      P             -23.7093905265       31.2953763833       17.9484066413  MEMB      77              0.0000000000
      9421        77  PMPE      O13           -23.3267428436       30.4463882573       16.8099533203  MEMB      77              0.0000000000
      9422        77  PMPE      O14           -22.6779073749       32.0135010349       18.7210874393  MEMB      77              0.0000000000
      9423        77  PMPE      O11           -24.7930803650       32.3518837925       17.4869333806  MEMB      77              0.0000000000
      9424        77  PMPE      O12           -24.4700319022       30.3179768690       18.9667602025  MEMB      77              0.0000000000
      9425        77  PMPE      C1            -25.7820987871       32.0691151520       16.5031581072  MEMB      77              0.0000000000
      9426        77  PMPE      HA            -26.5613732141       32.8561688577       16.5969347469  MEMB      77              0.0000000000
      9427        77  PMPE      HB            -26.2617548809       31.0853219659       16.7074324755  MEMB      77              0.0000000000
      9428        77  PMPE      C2            -25.2738891311       32.1236065916       15.0212064290  MEMB      77              0.0000000000
      9429        77  PMPE      HS            -24.5382160634       31.2906242714       14.8964313389  MEMB      77              0.0000000000
      9430        77  PMPE      O21           -24.7071157730       33.4256598860       14.7502584918  MEMB      77              0.0000000000
      9431        77  PMPE      C21           -23.7657740208       33.4252234068       13.8165101286  MEMB      77              0.0000000000
      9432        77  PMPE      O22           -23.3397005470       32.4532189560       13.2235890912  MEMB      77              0.0000000000
      9433        77  PMPE      C22           -23.2664011263       34.8547613000       13.5898022874  MEMB      77              0.0000000000
      9434        77  PMPE      H2R           -22.4767008043       35.0226930723       14.3515425101  MEMB      77              0.0000000000
      9435        77  PMPE      H2S           -24.0579337900       35.6052530172       13.7833064986  MEMB      77              0.0000000000
      9436        77  PMPE      C3            -26.4689024267       31.8296947966       14.0637394121  MEMB      77              0.0000000000
      9437        77  PMPE      HX            -27.3390992637       32.4208586387       14.4352697832  MEMB      77              0.0000000000
      9438        77  PMPE      HY            -26.6664832263       30.7412040730       14.2219921561  MEMB      77              0.0000000000
      9439        77  PMPE      O31           -26.2280172952       32.1523575451       12.6658636612  MEMB      77              0.0000000000
      9440        77  PMPE      C31           -27.1679922517       31.6054461833       11.8854798377  MEMB      77              0.0000000000
      9441        77  PMPE      O32           -28.0166710082       30.8278973941       12.2796777332  MEMB      77              0.0000000000
      9442        77  PMPE      C32           -27.0974370198       32.1500960844       10.4626816514  MEMB      77              0.0000000000
      9443        77  PMPE      H2X           -26.2218032828       31.7593899606        9.9053530344  MEMB      77              0.0000000000
      9444        77  PMPE      H2Y           -27.0180311177       33.2509806316       10.5030018612  MEMB      77              0.0000000000
      9445        77  PMPE      C23           -22.7096179070       35.0821964344       12.1619157924  MEMB      77              0.0000000000
      9446        77  PMPE      H3R           -21.9734040728       34.3104855077       11.8444128304  MEMB      77              0.0000000000
      9447        77  PMPE      H3S           -22.1323540418       36.0342271350       12.2317599104  MEMB      77              0.0000000000
      9448        77  PMPE      C24           -23.8223400313       35.2776506264       11.1072971307  MEMB      77              0.0000000000
      9449        77  PMPE      H4R           -24.5660471776       35.9832301758       11.5376551688  MEMB      77              0.0000000000
      9450        77  PMPE      H4S           -24.3685846027       34.3395366083       10.8654223072  MEMB      77              0.0000000000
      9451        77  PMPE      C25           -23.2571854178       35.8732025792        9.8101375663  MEMB      77              0.0000000000
      9452        77  PMPE      H5R           -22.5256343478       35.1549390807        9.3888789129  MEMB      77              0.0000000000
      9453        77  PMPE      H5S           -22.7113531408       36.7998639169       10.0970271792  MEMB      77              0.0000000000
      9454        77  PMPE      C26           -24.2802239049       36.2215273162        8.7188459180  MEMB      77              0.0000000000
      9455        77  PMPE      H6R           -23.7681629340       36.8300376070        7.9358686400  MEMB      77              0.0000000000
      9456        77  PMPE      H6S           -25.0986270664       36.8141896215        9.1597468368  MEMB      77              0.0000000000
      9457        77  PMPE      C27           -24.8964730816       35.0436274849        7.9738670474  MEMB      77              0.0000000000
      9458        77  PMPE      H7R           -25.4243913841       35.4496999332        7.0742744823  MEMB      77              0.0000000000
      9459        77  PMPE      H7S           -25.6248499068       34.5129264612        8.6214108585  MEMB      77              0.0000000000
      9460        77  PMPE      C28           -23.8531722069       34.0152571896        7.5457658996  MEMB      77              0.0000000000
      9461        77  PMPE      H8R           -23.4334506737       33.5201050157        8.4480217487  MEMB      77              0.0000000000
      9462        77  PMPE      H8S           -23.0574387910       34.5593758011        6.9905692550  MEMB      77              0.0000000000
      9463        77  PMPE      C29           -24.5296368749       33.0133759416        6.6444221458  MEMB      77              0.0000000000
      9464        77  PMPE      H9R           -25.2425835684       33.4301563457        5.9133160723  MEMB      77              0.0000000000
      9465        77  PMPE      C217          -24.8385179524       31.6211606670        7.2072703383  MEMB      77              0.0000000000
      9466        77  PMPE      H17R          -25.7307362998       31.1687464175        6.7985950595  MEMB      77              0.0000000000
      9467        77  PMPE      H17S          -24.3936359410       31.3387870362        8.1484245008  MEMB      77              0.0000000000
      9468        77  PMPE      C210          -23.7723874303       31.8205897168        6.1292236517  MEMB      77              0.0000000000
      9469        77  PMPE      H10R          -24.1084599323       31.5152486111        5.1271967581  MEMB      77              0.0000000000
      9470        77  PMPE      C211          -22.3138718481       31.5133071066        6.5179534735  MEMB      77              0.0000000000
      9471        77  PMPE      H11R          -22.0624402129       30.5173084632        6.0827044975  MEMB      77              0.0000000000
      9472        77  PMPE      H11S          -22.1894781354       31.4277323830        7.6200307460  MEMB      77              0.0000000000
      9473        77  PMPE      C212          -21.2339558753       32.5091501843        6.0304099724  MEMB      77              0.0000000000
      9474        77  PMPE      H12R          -20.2842166779       32.1720093495        6.5103756272  MEMB      77              0.0000000000
      9475        77  PMPE      H12S          -21.4159711947       33.5420632291        6.3789070161  MEMB      77              0.0000000000
      9476        77  PMPE      C213          -21.0208863695       32.5300992303        4.5131322749  MEMB      77              0.0000000000
      9477        77  PMPE      H13R          -20.9945046393       31.4804976768        4.1561090671  MEMB      77              0.0000000000
      9478        77  PMPE      H13S          -20.0321424938       32.9916344574        4.2678996677  MEMB      77              0.0000000000
      9479        77  PMPE      C214          -22.1375386993       33.2409122217        3.7473651575  MEMB      77              0.0000000000
      9480        77  PMPE      H14R          -22.4184169437       34.1993048773        4.2344886612  MEMB      77              0.0000000000
      9481        77  PMPE      H14S          -23.0494718782       32.6185575460        3.7467966069  MEMB      77              0.0000000000
      9482        77  PMPE      C215          -21.7711864682       33.4624934480        2.2911101547  MEMB      77              0.0000000000
      9483        77  PMPE      H15R          -20.7379259836       33.8811831373        2.2520107737  MEMB      77              0.0000000000
      9484        77  PMPE      H15S          -22.4863780267       34.2060786604        1.8691529390  MEMB      77              0.0000000000
      9485        77  PMPE      C216          -21.8595242403       32.2306539898        1.4025972157  MEMB      77              0.0000000000
      9486        77  PMPE      H16R          -21.7892639147       32.5807971313        0.3548976837  MEMB      77              0.0000000000
      9487        77  PMPE      H16S          -21.0430681319       31.5144937777        1.6470098034  MEMB      77              0.0000000000
      9488        77  PMPE      H16T          -22.8496180731       31.7418228398        1.4815942974  MEMB      77              0.0000000000
      9489        77  PMPE      C33           -28.4053917084       31.8454351503        9.7302028115  MEMB      77              0.0000000000
      9490        77  PMPE      H3X           -29.2493580994       32.3634892208       10.2454333318  MEMB      77              0.0000000000
      9491        77  PMPE      H3Y           -28.6285605202       30.7494590427        9.8089949446  MEMB      77              0.0000000000
      9492        77  PMPE      C34           -28.3380243886       32.3330492389        8.2833287611  MEMB      77              0.0000000000
      9493        77  PMPE      H4X           -27.3901715220       32.1529295338        7.7665758438  MEMB      77              0.0000000000
      9494        77  PMPE      H4Y           -28.6599720577       33.3659225270        8.1260308041  MEMB      77              0.0000000000
      9495        77  PMPE      C35           -29.2492908029       31.5321130742        7.4849060983  MEMB      77              0.0000000000
      9496        77  PMPE      H5X           -30.1926880966       31.6040799761        8.0878369409  MEMB      77              0.0000000000
      9497        77  PMPE      H5Y           -28.8211962677       30.5246373410        7.3977161038  MEMB      77              0.0000000000
      9498        77  PMPE      C36           -29.3794761970       31.7966278215        6.0352441824  MEMB      77              0.0000000000
      9499        77  PMPE      H6X           -30.0086990852       32.5909296814        6.0512440177  MEMB      77              0.0000000000
      9500        77  PMPE      H6Y           -30.0262482430       31.1421148595        5.4456563261  MEMB      77              0.0000000000
      9501        77  PMPE      C37           -28.2056803215       31.9087742567        5.1902811857  MEMB      77              0.0000000000
      9502        77  PMPE      H7X           -27.3017968779       32.0208301300        5.7657388688  MEMB      77              0.0000000000
      9503        77  PMPE      H7Y           -28.1971250879       32.7447304269        4.5149091122  MEMB      77              0.0000000000
      9504        77  PMPE      C38           -28.3202246996       30.7000546411        4.3675624684  MEMB      77              0.0000000000
      9505        77  PMPE      H8X           -29.2240456333       30.7226921188        3.7257870069  MEMB      77              0.0000000000
      9506        77  PMPE      H8Y           -28.5746720118       29.9086064199        5.0881962050  MEMB      77              0.0000000000
      9507        77  PMPE      C39           -27.0405247082       30.5996934089        3.6403142996  MEMB      77              0.0000000000
      9508        77  PMPE      H9X           -27.1184518530       29.6188304857        3.2728035616  MEMB      77              0.0000000000
      9509        77  PMPE      H9Y           -26.1819156579       30.4815182991        4.3146567736  MEMB      77              0.0000000000
      9510        77  PMPE      C310          -26.8237536046       31.7375485033        2.6296918878  MEMB      77              0.0000000000
      9511        77  PMPE      H10X          -25.7957392399       31.6009796068        2.2347173188  MEMB      77              0.0000000000
      9512        77  PMPE      H10Y          -26.8402035228       32.7134070803        3.1057356256  MEMB      77              0.0000000000
      9513        77  PMPE      C311          -27.7979120472       32.0100693241        1.4832460509  MEMB      77              0.0000000000
      9514        77  PMPE      H11X          -28.8588349633       32.1293910043        1.5399768493  MEMB      77              0.0000000000
      9515        77  PMPE      H11Y          -28.0095931426       31.0272901682        1.2238201404  MEMB      77              0.0000000000
      9516        77  PMPE      C312          -27.1683121987       32.7175491683        0.2896300081  MEMB      77              0.0000000000
      9517        77  PMPE      H12X          -27.6114055753       32.3336188279       -0.6172301575  MEMB      77              0.0000000000
      9518        77  PMPE      H12Y          -26.1585582937       32.5612438616       -0.0969652031  MEMB      77              0.0000000000
      9519        77  PMPE      C313          -27.1169766066       34.1390971517        0.4850452595  MEMB      77              0.0000000000
      9520        77  PMPE      H13X          -27.9640704532       34.3166786273        1.1702712708  MEMB      77              0.0000000000
      9521        77  PMPE      H13Y          -27.0260862742       34.7151453268       -0.4568760772  MEMB      77              0.0000000000
      9522        77  PMPE      C314          -25.9373331436       34.5533379082        1.1400334068  MEMB      77              0.0000000000
      9523        77  PMPE      H14X          -25.3389267084       35.0528075897        0.3386832295  MEMB      77              0.0000000000
      9524        77  PMPE      H14Y          -25.4574449048       33.6191312731        1.4916533889  MEMB      77              0.0000000000
      9525        77  PMPE      C315          -26.4870828805       35.5018967471        2.1536519389  MEMB      77              0.0000000000
      9526        77  PMPE      H15X          -27.3406057535       35.1342083183        2.7846257244  MEMB      77              0.0000000000
      9527        77  PMPE      H15Y          -26.8953123748       36.3816245113        1.5935645953  MEMB      77              0.0000000000
      9528        77  PMPE      C316          -25.3245233128       35.8202072669        2.9975242284  MEMB      77              0.0000000000
      9529        77  PMPE      H16X          -25.6382993680       36.6606157861        3.5947101994  MEMB      77              0.0000000000
      9530        77  PMPE      H16Y          -24.4419304105       36.0282215029        2.3486486982  MEMB      77              0.0000000000
      9531        77  PMPE      H16Z          -25.0916616426       35.0265939929        3.7247963913  MEMB      77              0.0000000000
      9532        78  POPE      N              10.9239703008       35.5133985786       20.6116597243  MEMB      78              0.0000000000
      9533        78  POPE      HN1            10.4736106408       35.5097610908       19.6760224936  MEMB      78              0.0000000000
      9534        78  POPE      HN2            10.8334693946       34.5670622734       21.0469001452  MEMB      78              0.0000000000
      9535        78  POPE      HN3            10.5163761489       36.2839859481       21.1911499726  MEMB      78              0.0000000000
      9536        78  POPE      C12            12.3645624125       35.8363093809       20.3541377732  MEMB      78              0.0000000000
      9537        78  POPE      H12A           12.7340495683       35.1275488975       19.5867700209  MEMB      78              0.0000000000
      9538        78  POPE      H12B           12.8780839276       35.6357053155       21.2997867834  MEMB      78              0.0000000000
      9539        78  POPE      C11            12.5685792964       37.3055206666       19.9386328689  MEMB      78              0.0000000000
      9540        78  POPE      H11A           13.6409882130       37.4205167478       19.6395938376  MEMB      78              0.0000000000
      9541        78  POPE      H11B           12.3904398491       37.9444518917       20.8407198088  MEMB      78              0.0000000000
      9542        78  POPE      P              11.8792449652       39.1245737437       18.1760487782  MEMB      78              0.0000000000
      9543        78  POPE      O13            12.3412122628       40.0443001845       19.2441057089  MEMB      78              0.0000000000
      9544        78  POPE      O14            10.7414422099       39.4395411365       17.3066930939  MEMB      78              0.0000000000
      9545        78  POPE      O11            13.1011387928       38.7951485688       17.2381011047  MEMB      78              0.0000000000
      9546        78  POPE      O12            11.6765563814       37.6779751540       18.8726187132  MEMB      78              0.0000000000
      9547        78  POPE      C1             14.3961943873       39.2735462202       17.6306329439  MEMB      78              0.0000000000
      9548        78  POPE      HA             14.6618916569       38.9456609372       18.6627272457  MEMB      78              0.0000000000
      9549        78  POPE      HB             14.3879966117       40.3789828699       17.6550369785  MEMB      78              0.0000000000
      9550        78  POPE      C2             15.5480694007       38.7892498426       16.6884435083  MEMB      78              0.0000000000
      9551        78  POPE      HS             16.3984216403       39.4942717118       16.7970744320  MEMB      78              0.0000000000
      9552        78  POPE      O21            15.1758630490       38.6533333173       15.3144249041  MEMB      78              0.0000000000
      9553        78  POPE      C21            14.6842779935       39.7178859909       14.7920483356  MEMB      78              0.0000000000
      9554        78  POPE      O22            14.7858267779       40.8620584860       15.2179233100  MEMB      78              0.0000000000
      9555        78  POPE      C22            14.0236001667       39.2222166311       13.5035896039  MEMB      78              0.0000000000
      9556        78  POPE      H2R            13.1298748175       38.6259929043       13.7816118575  MEMB      78              0.0000000000
      9557        78  POPE      H2S            14.7235347873       38.7453989050       12.8045465077  MEMB      78              0.0000000000
      9558        78  POPE      C3             15.9651000696       37.3972104592       17.1341556286  MEMB      78              0.0000000000
      9559        78  POPE      HX             16.4574325199       37.3754427911       18.0999780512  MEMB      78              0.0000000000
      9560        78  POPE      HY             16.7798037176       36.9988418708       16.4509424343  MEMB      78              0.0000000000
      9561        78  POPE      O31            14.7156914783       36.6698097516       17.3367538012  MEMB      78              0.0000000000
      9562        78  POPE      C31            14.4676674948       36.0003635794       16.2526296869  MEMB      78              0.0000000000
      9563        78  POPE      O32            15.3763297125       35.8039004362       15.4387590380  MEMB      78              0.0000000000
      9564        78  POPE      C32            13.0123945918       35.3409065226       16.2877595975  MEMB      78              0.0000000000
      9565        78  POPE      H2X            12.3075669081       35.9777012759       16.8184061511  MEMB      78              0.0000000000
      9566        78  POPE      H2Y            13.0055112969       34.4627266377       16.9528705201  MEMB      78              0.0000000000
      9567        78  POPE      C23            13.4454997444       40.3530534582       12.7764138940  MEMB      78              0.0000000000
      9568        78  POPE      H3R            14.2004443616       41.1249210733       12.6801792873  MEMB      78              0.0000000000
      9569        78  POPE      H3S            12.7029178678       40.5970869465       13.5642151241  MEMB      78              0.0000000000
      9570        78  POPE      C24            12.7377631254       40.1906755472       11.4643753440  MEMB      78              0.0000000000
      9571        78  POPE      H4R            13.3863486976       39.9650513658       10.6436928313  MEMB      78              0.0000000000
      9572        78  POPE      H4S            12.1901261643       41.0376747590       11.0580912174  MEMB      78              0.0000000000
      9573        78  POPE      C25            11.4215411685       39.5992475040       11.5732918873  MEMB      78              0.0000000000
      9574        78  POPE      H5R            10.7008746276       40.1845925556       12.2290923808  MEMB      78              0.0000000000
      9575        78  POPE      H5S            11.6784530907       38.6510069984       12.0614166211  MEMB      78              0.0000000000
      9576        78  POPE      C26            10.8940758836       39.5887636248       10.1674294221  MEMB      78              0.0000000000
      9577        78  POPE      H6R            10.4923891637       40.5551804417        9.7891909513  MEMB      78              0.0000000000
      9578        78  POPE      H6S            10.0950876877       38.9274721776       10.2900872560  MEMB      78              0.0000000000
      9579        78  POPE      C27            11.6048454089       38.7047795021        9.1828901261  MEMB      78              0.0000000000
      9580        78  POPE      H7R            11.2020893024       37.6740041330        9.3210609091  MEMB      78              0.0000000000
      9581        78  POPE      H7S            12.6684782746       38.6752635147        9.4632505132  MEMB      78              0.0000000000
      9582        78  POPE      C28            11.5408080520       39.2296074415        7.7404681685  MEMB      78              0.0000000000
      9583        78  POPE      H8R            12.2491299022       38.5765332253        7.2079259294  MEMB      78              0.0000000000
      9584        78  POPE      H8S            11.9267092675       40.2667842054        7.8101908660  MEMB      78              0.0000000000
      9585        78  POPE      C29            10.2864382412       39.3339709461        6.9284614329  MEMB      78              0.0000000000
      9586        78  POPE      H91             9.4715961059       39.8641132541        7.4330250445  MEMB      78              0.0000000000
      9587        78  POPE      C210            9.9825564589       38.8692825031        5.7124343159  MEMB      78              0.0000000000
      9588        78  POPE      H101            8.9776869048       38.9797570937        5.2933802434  MEMB      78              0.0000000000
      9589        78  POPE      C211           10.7325704347       38.1049875933        4.7403174200  MEMB      78              0.0000000000
      9590        78  POPE      H11R           10.0009936803       37.5666561951        4.0908090480  MEMB      78              0.0000000000
      9591        78  POPE      H11S           11.3640415177       37.4169774429        5.3054103519  MEMB      78              0.0000000000
      9592        78  POPE      C212           11.6034808778       39.0593396868        3.9635195743  MEMB      78              0.0000000000
      9593        78  POPE      H12R           11.9960389654       38.4923083354        3.0986055533  MEMB      78              0.0000000000
      9594        78  POPE      H12S           12.4545952438       39.3155699432        4.6402493826  MEMB      78              0.0000000000
      9595        78  POPE      C213           10.9404550042       40.3604076420        3.4602595643  MEMB      78              0.0000000000
      9596        78  POPE      H13R           11.6931532628       40.8688550691        2.8233127046  MEMB      78              0.0000000000
      9597        78  POPE      H13S           10.7854048448       41.0335320531        4.3363372246  MEMB      78              0.0000000000
      9598        78  POPE      C214            9.5873570982       40.2395450960        2.7067314629  MEMB      78              0.0000000000
      9599        78  POPE      H14R            9.2358239869       41.2702860387        2.4666058527  MEMB      78              0.0000000000
      9600        78  POPE      H14S            8.8229170664       39.7691081489        3.3496126863  MEMB      78              0.0000000000
      9601        78  POPE      C215            9.5563336212       39.4436354619        1.4055277279  MEMB      78              0.0000000000
      9602        78  POPE      H15R            8.5216966610       39.3601878319        1.0005985790  MEMB      78              0.0000000000
      9603        78  POPE      H15S            9.9299100045       38.4066887596        1.5648049792  MEMB      78              0.0000000000
      9604        78  POPE      C216           10.3806208165       40.1473180002        0.3778347814  MEMB      78              0.0000000000
      9605        78  POPE      H16R           11.4402429993       40.0621743697        0.7404010943  MEMB      78              0.0000000000
      9606        78  POPE      H16S           10.1751408933       41.2357816782        0.2440832395  MEMB      78              0.0000000000
      9607        78  POPE      C217           10.3154872279       39.4716966296       -0.9658138856  MEMB      78              0.0000000000
      9608        78  POPE      H17R           11.1082762339       40.1812016975       -1.1945548695  MEMB      78              0.0000000000
      9609        78  POPE      H17S            9.5907874399       39.7701785267       -1.7518967854  MEMB      78              0.0000000000
      9610        78  POPE      C218           10.6195853534       37.9445887746       -0.8865842241  MEMB      78              0.0000000000
      9611        78  POPE      H18R            9.6900217127       37.4430665665       -0.5642379996  MEMB      78              0.0000000000
      9612        78  POPE      H18S           11.5461539760       37.7587169436       -0.3186167756  MEMB      78              0.0000000000
      9613        78  POPE      H18T           10.8781723192       37.3277353432       -1.7639406340  MEMB      78              0.0000000000
      9614        78  POPE      C33            12.4347120109       34.8073510583       14.9479658722  MEMB      78              0.0000000000
      9615        78  POPE      H3X            11.5013433068       34.2459105498       15.1500022903  MEMB      78              0.0000000000
      9616        78  POPE      H3Y            12.8330247438       33.9940189968       14.3500931970  MEMB      78              0.0000000000
      9617        78  POPE      C34            12.4913633967       35.8853201922       13.9039349292  MEMB      78              0.0000000000
      9618        78  POPE      H4X            13.4084366214       36.4195059346       13.6245710574  MEMB      78              0.0000000000
      9619        78  POPE      H4Y            12.1209155762       36.6975718369       14.5499116521  MEMB      78              0.0000000000
      9620        78  POPE      C35            11.8294358463       35.2647214023       12.6557924918  MEMB      78              0.0000000000
      9621        78  POPE      H5X            10.9745228795       35.7564021103       12.1546486482  MEMB      78              0.0000000000
      9622        78  POPE      H5Y            11.4716419835       34.2335407320       12.8231107279  MEMB      78              0.0000000000
      9623        78  POPE      C36            12.3276075712       35.4755845898       11.3521478054  MEMB      78              0.0000000000
      9624        78  POPE      H6X            13.1453289365       34.8276882318       11.5677602927  MEMB      78              0.0000000000
      9625        78  POPE      H6Y            12.5937013758       36.5022422136       11.0329986952  MEMB      78              0.0000000000
      9626        78  POPE      C37            11.2816714172       34.8168506474       10.4997196850  MEMB      78              0.0000000000
      9627        78  POPE      H7X            10.5324814632       35.4822074578       10.0304732664  MEMB      78              0.0000000000
      9628        78  POPE      H7Y            10.7668726477       33.9443208620       11.0141017348  MEMB      78              0.0000000000
      9629        78  POPE      C38            12.1812294025       34.2811803748        9.6128473837  MEMB      78              0.0000000000
      9630        78  POPE      H8X            11.4331115479       33.5593399403        9.3314989192  MEMB      78              0.0000000000
      9631        78  POPE      H8Y            12.7052214914       33.4646515371       10.0662051325  MEMB      78              0.0000000000
      9632        78  POPE      C39            12.8965681115       35.4192619633        8.8236751101  MEMB      78              0.0000000000
      9633        78  POPE      H9X            13.7053130353       35.9199398468        9.4015630023  MEMB      78              0.0000000000
      9634        78  POPE      H9Y            12.1029400282       36.1418969797        8.5490483437  MEMB      78              0.0000000000
      9635        78  POPE      C310           13.5257619858       34.9562291605        7.4609807012  MEMB      78              0.0000000000
      9636        78  POPE      H10X           14.6823411224       34.9095844614        7.8658288207  MEMB      78              0.0000000000
      9637        78  POPE      H10Y           14.0427308695       35.7701931909        6.7960615961  MEMB      78              0.0000000000
      9638        78  POPE      C311           12.5999650449       33.0614736480        5.6958096244  MEMB      78              0.0000000000
      9639        78  POPE      H11X           11.2546908849       32.9818906658        5.4947540003  MEMB      78              0.0000000000
      9640        78  POPE      H11Y           13.0202653013       32.5467391715        6.4785822056  MEMB      78              0.0000000000
      9641        78  POPE      C312           13.1051155399       33.2900470476        4.2032502138  MEMB      78              0.0000000000
      9642        78  POPE      H12X           12.6384921064       32.3683433680        3.9531462687  MEMB      78              0.0000000000
      9643        78  POPE      H12Y           14.2041409521       33.1065684996        4.0353853267  MEMB      78              0.0000000000
      9644        78  POPE      C313           13.1242849339       34.6650640585        3.4368028905  MEMB      78              0.0000000000
      9645        78  POPE      H13X           13.7615246167       34.3858740705        2.5835427537  MEMB      78              0.0000000000
      9646        78  POPE      H13Y           13.7065026283       35.4469292195        3.9792745821  MEMB      78              0.0000000000
      9647        78  POPE      C314           11.8444826181       35.2445556856        2.7942157936  MEMB      78              0.0000000000
      9648        78  POPE      H14X           12.1055585559       35.9857351285        2.0395142486  MEMB      78              0.0000000000
      9649        78  POPE      H14Y           11.2107890361       35.9205802225        3.3964043856  MEMB      78              0.0000000000
      9650        78  POPE      C315           10.8346855407       34.1549253379        2.4608334977  MEMB      78              0.0000000000
      9651        78  POPE      H15X           10.3881520882       33.5486850449        3.2599197156  MEMB      78              0.0000000000
      9652        78  POPE      H15Y           11.3779134720       33.4005175405        1.9291771220  MEMB      78              0.0000000000
      9653        78  POPE      C316            9.6585111750       34.7601107701        1.7901774038  MEMB      78              0.0000000000
      9654        78  POPE      H16X           10.0921331751       35.2893747821        0.9230307439  MEMB      78              0.0000000000
      9655        78  POPE      H16Y            9.1600389696       35.4845128409        2.4742046621  MEMB      78              0.0000000000
      9656        78  POPE      H16Z            8.9284977732       33.9736689285        1.5138782243  MEMB      78              0.0000000000
      9657        79  QMPE      N             -18.0089313304       34.5547564005       22.1823859200  MEMB      79              0.0000000000
      9658        79  QMPE      HN1           -18.9459990685       34.1387128496       22.3670350483  MEMB      79              0.0000000000
      9659        79  QMPE      HN2           -17.4394094195       33.8418769110       21.6741789534  MEMB      79              0.0000000000
      9660        79  QMPE      HN3           -17.5620636816       34.8307753975       23.0822756182  MEMB      79              0.0000000000
      9661        79  QMPE      C12           -18.1480974568       35.8160361225       21.3665706284  MEMB      79              0.0000000000
      9662        79  QMPE      H12A          -17.1928496618       36.3831831031       21.3968384522  MEMB      79              0.0000000000
      9663        79  QMPE      H12B          -18.9505523649       36.4081140351       21.8586795170  MEMB      79              0.0000000000
      9664        79  QMPE      C11           -18.6134337828       35.5715955557       19.9211836676  MEMB      79              0.0000000000
      9665        79  QMPE      H11A          -18.9328268528       36.5863269694       19.5635357938  MEMB      79              0.0000000000
      9666        79  QMPE      H11B          -19.5110195622       34.9233636499       19.9259376243  MEMB      79              0.0000000000
      9667        79  QMPE      P             -17.3517290635       35.5656526800       17.6225221829  MEMB      79              0.0000000000
      9668        79  QMPE      O13           -18.1011296800       36.8242172866       17.5193701362  MEMB      79              0.0000000000
      9669        79  QMPE      O14           -17.5988764304       34.6290575220       16.5304843893  MEMB      79              0.0000000000
      9670        79  QMPE      O11           -15.8001124427       35.8154052586       17.7973405211  MEMB      79              0.0000000000
      9671        79  QMPE      O12           -17.6184988796       34.9545963069       19.0953926968  MEMB      79              0.0000000000
      9672        79  QMPE      C1            -15.3955236738       36.9554816664       18.5341443645  MEMB      79              0.0000000000
      9673        79  QMPE      HA            -14.7548304785       36.6900361490       19.3859451863  MEMB      79              0.0000000000
      9674        79  QMPE      HB            -16.2580814099       37.4921691474       18.9984452317  MEMB      79              0.0000000000
      9675        79  QMPE      C2            -14.7216890908       37.9269823645       17.5922711225  MEMB      79              0.0000000000
      9676        79  QMPE      HS            -14.2522280746       38.7652920879       18.1248978045  MEMB      79              0.0000000000
      9677        79  QMPE      O21           -15.7273961466       38.5118226950       16.9298998622  MEMB      79              0.0000000000
      9678        79  QMPE      C21           -16.4043269970       39.5111809202       17.6500219208  MEMB      79              0.0000000000
      9679        79  QMPE      O22           -16.2414220311       39.6942802803       18.8395501831  MEMB      79              0.0000000000
      9680        79  QMPE      C22           -17.3802199079       40.4283712364       16.6958396874  MEMB      79              0.0000000000
      9681        79  QMPE      H2R           -18.3504508731       40.5370979408       17.0613080697  MEMB      79              0.0000000000
      9682        79  QMPE      H2S           -17.4552753911       39.3611983799       16.5733768547  MEMB      79              0.0000000000
      9683        79  QMPE      C3            -13.6595754136       37.4039420051       16.5782962973  MEMB      79              0.0000000000
      9684        79  QMPE      HX            -12.9937096736       36.7658092273       17.1697619437  MEMB      79              0.0000000000
      9685        79  QMPE      HY            -13.0927088697       38.2743501822       16.1513921851  MEMB      79              0.0000000000
      9686        79  QMPE      O31           -14.1214698234       36.5328206575       15.5977465770  MEMB      79              0.0000000000
      9687        79  QMPE      C31           -14.0698202922       36.9964633439       14.3946516803  MEMB      79              0.0000000000
      9688        79  QMPE      O32           -13.5246479520       38.0092454405       13.9840809548  MEMB      79              0.0000000000
      9689        79  QMPE      C32           -14.6994741153       35.8943649367       13.5947010767  MEMB      79              0.0000000000
      9690        79  QMPE      H2X           -14.0018824735       35.0579309654       13.6772698076  MEMB      79              0.0000000000
      9691        79  QMPE      H2Y           -15.6492223697       35.5966074096       14.0881709743  MEMB      79              0.0000000000
      9692        79  QMPE      C23           -17.2967436139       41.5856424739       15.2163295790  MEMB      79              0.0000000000
      9693        79  QMPE      H3R           -17.0921879024       42.5817452598       15.4199391174  MEMB      79              0.0000000000
      9694        79  QMPE      H3S           -18.2626154462       41.9536289982       15.3065952395  MEMB      79              0.0000000000
      9695        79  QMPE      C24           -16.3826303191       41.6403408273       13.6906617443  MEMB      79              0.0000000000
      9696        79  QMPE      H4R           -15.4039197816       41.1362312487       13.5569334536  MEMB      79              0.0000000000
      9697        79  QMPE      H4S           -15.8931090558       42.5908338591       13.5204276520  MEMB      79              0.0000000000
      9698        79  QMPE      C25           -16.6841895099       40.7728592386       12.4402267569  MEMB      79              0.0000000000
      9699        79  QMPE      H5R           -17.5335491184       41.0746205871       11.8824021115  MEMB      79              0.0000000000
      9700        79  QMPE      H5S           -16.8231295942       39.7147800070       12.6894636369  MEMB      79              0.0000000000
      9701        79  QMPE      C26           -15.7004074766       40.5554875139       11.3677536714  MEMB      79              0.0000000000
      9702        79  QMPE      H6R           -14.8749588928       40.0243089819       11.8912032869  MEMB      79              0.0000000000
      9703        79  QMPE      H6S           -15.4538692403       41.5760049786       11.0210919955  MEMB      79              0.0000000000
      9704        79  QMPE      C27           -16.3325704480       39.5361953894       10.3980397981  MEMB      79              0.0000000000
      9705        79  QMPE      H7R           -16.8367777176       38.7219984629       10.9867141075  MEMB      79              0.0000000000
      9706        79  QMPE      H7S           -15.5651343541       39.1614778597        9.7280277083  MEMB      79              0.0000000000
      9707        79  QMPE      C28           -17.3701799820       39.9637067884        9.4047074342  MEMB      79              0.0000000000
      9708        79  QMPE      H8R           -18.1936367077       39.9617968456       10.0193320188  MEMB      79              0.0000000000
      9709        79  QMPE      H8S           -17.8286416230       39.2978240797        8.6764150037  MEMB      79              0.0000000000
      9710        79  QMPE      C29           -17.2190321858       41.3043971262        8.9210960057  MEMB      79              0.0000000000
      9711        79  QMPE      H9R           -17.1363711889       42.0619077830        9.7312897342  MEMB      79              0.0000000000
      9712        79  QMPE      C217          -17.7841547297       41.4673423246        7.5208053897  MEMB      79              0.0000000000
      9713        79  QMPE      H17R          -18.2666951382       40.6992548259        6.9618110344  MEMB      79              0.0000000000
      9714        79  QMPE      H17S          -18.4940541628       42.1464299187        7.4149748309  MEMB      79              0.0000000000
      9715        79  QMPE      C210          -16.3505018715       41.5331365486        7.7326984872  MEMB      79              0.0000000000
      9716        79  QMPE      H10R          -15.7185880497       42.4134996469        7.7488223710  MEMB      79              0.0000000000
      9717        79  QMPE      C211          -15.9948838047       40.3984737358        6.8968216459  MEMB      79              0.0000000000
      9718        79  QMPE      H11R          -15.2477469128       40.0406964983        7.5419384099  MEMB      79              0.0000000000
      9719        79  QMPE      H11S          -16.7881996407       39.6215963800        6.8633008622  MEMB      79              0.0000000000
      9720        79  QMPE      C212          -15.6506133204       40.8072314450        5.4876918283  MEMB      79              0.0000000000
      9721        79  QMPE      H12R          -15.1665429908       39.9341529471        5.0010247966  MEMB      79              0.0000000000
      9722        79  QMPE      H12S          -14.9316767192       41.6607003335        5.4540813708  MEMB      79              0.0000000000
      9723        79  QMPE      C213          -17.0066120192       41.0655473893        4.8243009921  MEMB      79              0.0000000000
      9724        79  QMPE      H13R          -17.5413089072       41.9127556424        5.3046917961  MEMB      79              0.0000000000
      9725        79  QMPE      H13S          -17.5524415507       40.1315942861        4.6099828409  MEMB      79              0.0000000000
      9726        79  QMPE      C214          -16.9636422608       41.6736674004        3.5430463518  MEMB      79              0.0000000000
      9727        79  QMPE      H14R          -16.0268070070       41.4228354269        3.3264152123  MEMB      79              0.0000000000
      9728        79  QMPE      H14S          -16.4649799790       42.6072717567        3.7282628980  MEMB      79              0.0000000000
      9729        79  QMPE      C215          -18.0953855765       41.3279461198        2.5195491086  MEMB      79              0.0000000000
      9730        79  QMPE      H15R          -19.0552591493       41.7023406236        2.9623955035  MEMB      79              0.0000000000
      9731        79  QMPE      H15S          -18.0742903681       40.2878337092        2.2356356375  MEMB      79              0.0000000000
      9732        79  QMPE      C216          -18.2329015886       41.5594393158        1.0150960297  MEMB      79              0.0000000000
      9733        79  QMPE      H16R          -19.2720571604       41.5077844534        0.9621063219  MEMB      79              0.0000000000
      9734        79  QMPE      H16S          -17.7248722348       42.0586305582        0.1845836903  MEMB      79              0.0000000000
      9735        79  QMPE      H16T          -18.4708581281       42.5434254452        0.9339100485  MEMB      79              0.0000000000
      9736        79  QMPE      C33           -14.9430341309       36.2494566662       12.1361101465  MEMB      79              0.0000000000
      9737        79  QMPE      H3X           -14.0546940716       35.9399614503       11.5474860127  MEMB      79              0.0000000000
      9738        79  QMPE      H3Y           -15.0619644448       37.3496181755       12.0500821001  MEMB      79              0.0000000000
      9739        79  QMPE      C34           -16.2182485215       35.5733062872       11.6329867047  MEMB      79              0.0000000000
      9740        79  QMPE      H4X           -17.0756082008       35.8916258718       12.2778562113  MEMB      79              0.0000000000
      9741        79  QMPE      H4Y           -16.1007371659       34.4730832748       11.7757104095  MEMB      79              0.0000000000
      9742        79  QMPE      C35           -16.5494338199       35.8717686284       10.1595990125  MEMB      79              0.0000000000
      9743        79  QMPE      H5X           -16.9842215337       36.8886201276       10.0718386341  MEMB      79              0.0000000000
      9744        79  QMPE      H5Y           -17.3455634866       35.1533386706        9.8690745820  MEMB      79              0.0000000000
      9745        79  QMPE      C36           -15.3479926588       35.7771046819        9.1924944688  MEMB      79              0.0000000000
      9746        79  QMPE      H6X           -14.8799149059       34.7717382589        9.2665416327  MEMB      79              0.0000000000
      9747        79  QMPE      H6Y           -14.5798055485       36.5300752845        9.4892608109  MEMB      79              0.0000000000
      9748        79  QMPE      C37           -15.6225024857       36.1290403240        7.7125549789  MEMB      79              0.0000000000
      9749        79  QMPE      H7X           -15.8180676434       37.2210742348        7.6489145979  MEMB      79              0.0000000000
      9750        79  QMPE      H7Y           -14.6741880691       35.9612586920        7.1550339084  MEMB      79              0.0000000000
      9751        79  QMPE      C38           -16.7981639910       35.4139701010        7.0274250594  MEMB      79              0.0000000000
      9752        79  QMPE      H8X           -16.5952962482       34.3207615127        6.9514461692  MEMB      79              0.0000000000
      9753        79  QMPE      H8Y           -17.7171659580       35.5674065547        7.6345549755  MEMB      79              0.0000000000
      9754        79  QMPE      C39           -17.0381052211       35.8922156792        5.5808231426  MEMB      79              0.0000000000
      9755        79  QMPE      H9X           -17.5451012695       35.0779112329        5.0195859546  MEMB      79              0.0000000000
      9756        79  QMPE      H9Y           -16.0464353751       36.0530898580        5.1024298007  MEMB      79              0.0000000000
      9757        79  QMPE      C310          -17.8735749079       37.1707283811        5.4389569709  MEMB      79              0.0000000000
      9758        79  QMPE      H10X          -17.4694308749       37.7676110939        4.5900990102  MEMB      79              0.0000000000
      9759        79  QMPE      H10Y          -17.7566528029       37.7828267651        6.3646551134  MEMB      79              0.0000000000
      9760        79  QMPE      C311          -19.3551659957       36.9248604142        5.0978008588  MEMB      79              0.0000000000
      9761        79  QMPE      H11X          -19.8542419749       37.8871867619        5.2548785995  MEMB      79              0.0000000000
      9762        79  QMPE      H11Y          -19.8287474193       36.1630780187        5.7500564867  MEMB      79              0.0000000000
      9763        79  QMPE      C312          -19.6851139761       36.6963392041        3.6145457779  MEMB      79              0.0000000000
      9764        79  QMPE      H12X          -19.3261340258       35.6933018542        3.2961811914  MEMB      79              0.0000000000
      9765        79  QMPE      H12Y          -19.1246132932       37.4585806626        3.0303299211  MEMB      79              0.0000000000
      9766        79  QMPE      C313          -21.2050393826       36.8814561898        3.3517170999  MEMB      79              0.0000000000
      9767        79  QMPE      H13X          -21.6963771102       35.9113226174        3.5496323717  MEMB      79              0.0000000000
      9768        79  QMPE      H13Y          -21.6473802454       37.6391327311        4.0205742040  MEMB      79              0.0000000000
      9769        79  QMPE      C314          -21.6640618875       37.3743628665        1.9813913689  MEMB      79              0.0000000000
      9770        79  QMPE      H14X          -21.3285761847       38.4134944313        1.7569991268  MEMB      79              0.0000000000
      9771        79  QMPE      H14Y          -22.7459382810       37.2115754378        1.8282848659  MEMB      79              0.0000000000
      9772        79  QMPE      C315          -21.0643850475       36.5730215474        0.9670259376  MEMB      79              0.0000000000
      9773        79  QMPE      H15X          -21.4238286752       36.5932269470       -0.0660694248  MEMB      79              0.0000000000
      9774        79  QMPE      H15Y          -19.9865148648       36.8726781160        1.0597973351  MEMB      79              0.0000000000
      9775        79  QMPE      H15Z          -21.1543378097       35.5045753374        1.1925505636  MEMB      79              0.0000000000
      9776        80  PMPE      N              36.2978058202      -17.3247755455       22.1256025360  MEMB      80              0.0000000000
      9777        80  PMPE      HN1            36.5142392797      -16.5885035191       22.8455703500  MEMB      80              0.0000000000
      9778        80  PMPE      HN2            35.6664059139      -16.8632550039       21.4415181353  MEMB      80              0.0000000000
      9779        80  PMPE      HN3            35.8133769406      -18.1535084402       22.5297495881  MEMB      80              0.0000000000
      9780        80  PMPE      C12            37.5250576339      -17.8040553769       21.3914438898  MEMB      80              0.0000000000
      9781        80  PMPE      H12A           38.1094563028      -18.4518401181       22.0623288328  MEMB      80              0.0000000000
      9782        80  PMPE      H12B           38.1864691943      -16.9632321104       21.1785817121  MEMB      80              0.0000000000
      9783        80  PMPE      C11            37.1707725117      -18.4740643044       20.0570202730  MEMB      80              0.0000000000
      9784        80  PMPE      H11A           36.4955001605      -19.3469355799       20.2225257667  MEMB      80              0.0000000000
      9785        80  PMPE      H11B           38.1359300423      -18.8359066621       19.6204467215  MEMB      80              0.0000000000
      9786        80  PMPE      P              36.4439751097      -17.7081519621       17.6190325569  MEMB      80              0.0000000000
      9787        80  PMPE      O13            36.6847724217      -16.4200732901       16.9370650118  MEMB      80              0.0000000000
      9788        80  PMPE      O14            35.1740545030      -18.4309108661       17.3950480251  MEMB      80              0.0000000000
      9789        80  PMPE      O11            37.6433256581      -18.7085903333       17.2978420044  MEMB      80              0.0000000000
      9790        80  PMPE      O12            36.5514286147      -17.5098406821       19.2077438437  MEMB      80              0.0000000000
      9791        80  PMPE      C1             37.3330627507      -19.7228992637       16.3286490587  MEMB      80              0.0000000000
      9792        80  PMPE      HA             37.1227499653      -19.2378378336       15.3351255343  MEMB      80              0.0000000000
      9793        80  PMPE      HB             36.4627864164      -20.3525207922       16.5779821212  MEMB      80              0.0000000000
      9794        80  PMPE      C2             38.5324660662      -20.6258291598       16.2063680763  MEMB      80              0.0000000000
      9795        80  PMPE      HS             39.1259460469      -20.4577646221       17.1566366734  MEMB      80              0.0000000000
      9796        80  PMPE      O21            39.0307519194      -20.1267606784       14.9830889989  MEMB      80              0.0000000000
      9797        80  PMPE      C21            40.2154583024      -20.1348821181       15.0376524402  MEMB      80              0.0000000000
      9798        80  PMPE      O22            40.8845268548      -20.4020144973       16.0244877607  MEMB      80              0.0000000000
      9799        80  PMPE      C22            40.5482243604      -19.4329081769       13.7950904246  MEMB      80              0.0000000000
      9800        80  PMPE      H2R            41.1197768573      -18.6786421602       14.2344204204  MEMB      80              0.0000000000
      9801        80  PMPE      H2S            40.0149161508      -18.5098519165       13.5742970628  MEMB      80              0.0000000000
      9802        80  PMPE      C3             38.4219369234      -22.1473033955       16.0599420059  MEMB      80              0.0000000000
      9803        80  PMPE      HX             37.8108927408      -22.5323912552       16.8935039312  MEMB      80              0.0000000000
      9804        80  PMPE      HY             39.4303715881      -22.6326902072       16.1016505003  MEMB      80              0.0000000000
      9805        80  PMPE      O31            37.8117116958      -22.3495186692       14.7899370306  MEMB      80              0.0000000000
      9806        80  PMPE      C31            38.6059507705      -22.6576102339       13.7696981766  MEMB      80              0.0000000000
      9807        80  PMPE      O32            39.6808017611      -23.2168242362       13.8585741920  MEMB      80              0.0000000000
      9808        80  PMPE      C32            38.0072812514      -22.1166805327       12.4492476691  MEMB      80              0.0000000000
      9809        80  PMPE      H2X            37.1992799074      -22.8848614225       12.4404929905  MEMB      80              0.0000000000
      9810        80  PMPE      H2Y            38.5234923259      -22.4062558697       11.5396622431  MEMB      80              0.0000000000
      9811        80  PMPE      C23            40.9423690985      -20.3520084498       12.6232145437  MEMB      80              0.0000000000
      9812        80  PMPE      H3R            40.1693190307      -21.0898403583       12.5190766620  MEMB      80              0.0000000000
      9813        80  PMPE      H3S            41.8787272573      -20.9437505357       12.7462874004  MEMB      80              0.0000000000
      9814        80  PMPE      C24            40.8990306924      -19.6406918353       11.2830244757  MEMB      80              0.0000000000
      9815        80  PMPE      H4R            41.8926612251      -19.3669144452       11.4570375515  MEMB      80              0.0000000000
      9816        80  PMPE      H4S            40.3694151747      -18.6757096910       11.2500158196  MEMB      80              0.0000000000
      9817        80  PMPE      C25            40.9096808667      -20.4148567851        9.9501192744  MEMB      80              0.0000000000
      9818        80  PMPE      H5R            40.0300665690      -21.0450459223       10.0160680899  MEMB      80              0.0000000000
      9819        80  PMPE      H5S            41.6479097037      -21.2131262118        9.6961672975  MEMB      80              0.0000000000
      9820        80  PMPE      C26            41.1103202128      -19.4581568528        8.7823510039  MEMB      80              0.0000000000
      9821        80  PMPE      H6R            42.0177428125      -18.8027536046        8.8237727107  MEMB      80              0.0000000000
      9822        80  PMPE      H6S            40.2239805671      -18.8062592545        8.7897771456  MEMB      80              0.0000000000
      9823        80  PMPE      C27            41.0775858445      -20.2535066929        7.4978714659  MEMB      80              0.0000000000
      9824        80  PMPE      H7R            40.2262693133      -20.9454433487        7.5821361659  MEMB      80              0.0000000000
      9825        80  PMPE      H7S            41.7630866972      -21.0431825414        7.4132181815  MEMB      80              0.0000000000
      9826        80  PMPE      C28            41.3684775909      -19.4142380450        6.2404362509  MEMB      80              0.0000000000
      9827        80  PMPE      H8R            42.0827862475      -18.6044389675        6.4762491868  MEMB      80              0.0000000000
      9828        80  PMPE      H8S            40.3692682516      -18.9746741769        6.0630604132  MEMB      80              0.0000000000
      9829        80  PMPE      C29            41.9978909473      -20.1174071032        4.9996901564  MEMB      80              0.0000000000
      9830        80  PMPE      H9R            43.0437449349      -20.0021430119        4.7255194282  MEMB      80              0.0000000000
      9831        80  PMPE      C217           41.1955841374      -20.0279381123        3.7519374883  MEMB      80              0.0000000000
      9832        80  PMPE      H17R           41.5941481310      -20.3909360696        2.8160854342  MEMB      80              0.0000000000
      9833        80  PMPE      H17S           40.3431576960      -19.3875709008        3.9182056129  MEMB      80              0.0000000000
      9834        80  PMPE      C210           41.3814651840      -21.3109428937        4.4615630243  MEMB      80              0.0000000000
      9835        80  PMPE      H10R           41.6653084006      -22.0986285670        3.7482627522  MEMB      80              0.0000000000
      9836        80  PMPE      C211           40.1898374014      -21.5798095727        4.8401679033  MEMB      80              0.0000000000
      9837        80  PMPE      H11R           39.6641921488      -20.8552210103        5.4765109041  MEMB      80              0.0000000000
      9838        80  PMPE      H11S           40.5235973734      -22.1863817220        5.7371042605  MEMB      80              0.0000000000
      9839        80  PMPE      C212           39.5705273514      -22.1550970606        3.4209535641  MEMB      80              0.0000000000
      9840        80  PMPE      H12R           38.7290965416      -22.9036420897        3.2783296863  MEMB      80              0.0000000000
      9841        80  PMPE      H12S           40.1073107118      -23.0718696804        3.0998188675  MEMB      80              0.0000000000
      9842        80  PMPE      C213           38.7466289829      -21.0985347738        2.5885028512  MEMB      80              0.0000000000
      9843        80  PMPE      H13R           38.6726809423      -21.8689167569        1.7872339371  MEMB      80              0.0000000000
      9844        80  PMPE      H13S           39.5247559442      -20.5453412485        2.1512555526  MEMB      80              0.0000000000
      9845        80  PMPE      C214           37.5106411922      -20.0523702976        3.1303169722  MEMB      80              0.0000000000
      9846        80  PMPE      H14R           37.7119479648      -19.4914064117        4.0515096920  MEMB      80              0.0000000000
      9847        80  PMPE      H14S           36.6375973426      -20.1904157846        3.8325343473  MEMB      80              0.0000000000
      9848        80  PMPE      C215           36.6672183751      -19.3346967586        2.2010120404  MEMB      80              0.0000000000
      9849        80  PMPE      H15R           35.7255734693      -18.9899450221        2.7406615964  MEMB      80              0.0000000000
      9850        80  PMPE      H15S           36.4227984978      -20.0090328804        1.3529690472  MEMB      80              0.0000000000
      9851        80  PMPE      C216           37.7990466866      -18.3771271406        2.1040449661  MEMB      80              0.0000000000
      9852        80  PMPE      H16R           38.6502387490      -18.8906773025        1.6011975553  MEMB      80              0.0000000000
      9853        80  PMPE      H16S           37.4105764242      -17.5242295900        1.5812450159  MEMB      80              0.0000000000
      9854        80  PMPE      H16T           38.2187462965      -18.0512107483        3.1001901552  MEMB      80              0.0000000000
      9855        80  PMPE      C33            37.6531199752      -20.5353805027       12.4493150261  MEMB      80              0.0000000000
      9856        80  PMPE      H3X            38.4255011706      -19.7835964173       12.5469564623  MEMB      80              0.0000000000
      9857        80  PMPE      H3Y            37.2506134852      -20.3327806159       13.4651112992  MEMB      80              0.0000000000
      9858        80  PMPE      C34            36.8503609396      -19.8198458920       11.3038350214  MEMB      80              0.0000000000
      9859        80  PMPE      H4X            36.0751641651      -19.1105553218       11.6520137464  MEMB      80              0.0000000000
      9860        80  PMPE      H4Y            36.2314689776      -20.4336754282       10.7290407707  MEMB      80              0.0000000000
      9861        80  PMPE      C35            37.3159628434      -19.9220246229        9.8503700107  MEMB      80              0.0000000000
      9862        80  PMPE      H5X            38.1367825309      -20.6502362450        9.9563384036  MEMB      80              0.0000000000
      9863        80  PMPE      H5Y            37.4324565883      -18.8333238331        9.7515727909  MEMB      80              0.0000000000
      9864        80  PMPE      C36            36.4478010418      -20.4957070899        8.6800470986  MEMB      80              0.0000000000
      9865        80  PMPE      H6X            35.6081113897      -19.8267169057        8.3761744999  MEMB      80              0.0000000000
      9866        80  PMPE      H6Y            36.1819581539      -21.5821695974        8.7861335939  MEMB      80              0.0000000000
      9867        80  PMPE      C37            36.9087403343      -20.3568910628        7.3392385719  MEMB      80              0.0000000000
      9868        80  PMPE      H7X            36.0411368487      -20.5458484609        6.6319529018  MEMB      80              0.0000000000
      9869        80  PMPE      H7Y            37.6293802700      -21.2011533626        7.3045589447  MEMB      80              0.0000000000
      9870        80  PMPE      C38            37.5287204913      -18.9999773479        7.1285193502  MEMB      80              0.0000000000
      9871        80  PMPE      H8X            38.1029167127      -19.0967295245        6.1943349515  MEMB      80              0.0000000000
      9872        80  PMPE      H8Y            38.2337901017      -18.8412679684        7.9628496497  MEMB      80              0.0000000000
      9873        80  PMPE      C39            36.5662383776      -17.8064032524        7.0086666950  MEMB      80              0.0000000000
      9874        80  PMPE      H9X            35.9128270578      -17.6982982843        7.8985417801  MEMB      80              0.0000000000
      9875        80  PMPE      H9Y            35.9384983946      -17.9878910128        6.1078144793  MEMB      80              0.0000000000
      9876        80  PMPE      C310           37.3061753317      -16.4931283786        6.7911268408  MEMB      80              0.0000000000
      9877        80  PMPE      H10X           38.1297944464      -16.3771036922        7.5368082085  MEMB      80              0.0000000000
      9878        80  PMPE      H10Y           36.6380363286      -15.6126445804        6.9226237153  MEMB      80              0.0000000000
      9879        80  PMPE      C311           37.7788515397      -16.4555016002        5.3477059424  MEMB      80              0.0000000000
      9880        80  PMPE      H11X           36.9664696591      -16.5485692467        4.6100435526  MEMB      80              0.0000000000
      9881        80  PMPE      H11Y           38.5255105104      -17.2733897276        5.1703744736  MEMB      80              0.0000000000
      9882        80  PMPE      C312           38.3914257750      -15.1568422976        5.0273893233  MEMB      80              0.0000000000
      9883        80  PMPE      H12X           38.0767604267      -14.3311309366        5.7348366087  MEMB      80              0.0000000000
      9884        80  PMPE      H12Y           38.2489206693      -14.7848709369        3.9872922629  MEMB      80              0.0000000000
      9885        80  PMPE      C313           39.8266951536      -15.5007898334        5.1952862564  MEMB      80              0.0000000000
      9886        80  PMPE      H13X           40.2622246720      -15.9212908670        6.1017596236  MEMB      80              0.0000000000
      9887        80  PMPE      H13Y           39.9386936490      -14.4507836493        5.5407469326  MEMB      80              0.0000000000
      9888        80  PMPE      C314           40.6401100514      -16.1306806295        3.9814341212  MEMB      80              0.0000000000
      9889        80  PMPE      H14X           40.5690978549      -15.6052154640        3.0015380125  MEMB      80              0.0000000000
      9890        80  PMPE      H14Y           40.1558069431      -17.0737230193        3.6931955044  MEMB      80              0.0000000000
      9891        80  PMPE      C315           42.2033656337      -16.2345844353        4.2348149688  MEMB      80              0.0000000000
      9892        80  PMPE      H15X           42.4947548440      -16.9595847583        4.9981282400  MEMB      80              0.0000000000
      9893        80  PMPE      H15Y           42.8869315088      -15.4487888494        4.6028321078  MEMB      80              0.0000000000
      9894        80  PMPE      C316           42.9974159993      -15.9697494928        3.0043717414  MEMB      80              0.0000000000
      9895        80  PMPE      H16X           42.8651259309      -17.0019344802        3.1783736131  MEMB      80              0.0000000000
      9896        80  PMPE      H16Y           44.1003825589      -15.9258972648        2.9295278528  MEMB      80              0.0000000000
      9897        80  PMPE      H16Z           42.5176883455      -15.8804622119        2.0230853267  MEMB      80              0.0000000000
      9898        81  QMPE      N              32.2905215419       23.8459265276       21.4630434520  MEMB      81              0.0000000000
      9899        81  QMPE      HN1            32.1574783386       22.9105091180       21.8907143286  MEMB      81              0.0000000000
      9900        81  QMPE      HN2            32.5874943039       24.5610173732       22.1589100964  MEMB      81              0.0000000000
      9901        81  QMPE      HN3            31.4099387116       24.1500456260       20.9787052618  MEMB      81              0.0000000000
      9902        81  QMPE      C12            33.3411992792       23.7464755545       20.3953865714  MEMB      81              0.0000000000
      9903        81  QMPE      H12A           33.9797757497       22.8694552467       20.6034780482  MEMB      81              0.0000000000
      9904        81  QMPE      H12B           33.9525067538       24.6675832669       20.4320725193  MEMB      81              0.0000000000
      9905        81  QMPE      C11            32.6644520707       23.5872534949       19.0417117079  MEMB      81              0.0000000000
      9906        81  QMPE      H11A           32.1150077178       22.6177664783       19.0343131580  MEMB      81              0.0000000000
      9907        81  QMPE      H11B           33.4381439835       23.5392380904       18.2354847622  MEMB      81              0.0000000000
      9908        81  QMPE      P              32.0376143590       26.0603076712       18.2699129442  MEMB      81              0.0000000000
      9909        81  QMPE      O13            33.4818832351       26.3278991683       18.4899356972  MEMB      81              0.0000000000
      9910        81  QMPE      O14            31.0992045953       27.0252735728       18.8662085364  MEMB      81              0.0000000000
      9911        81  QMPE      O11            31.7819409217       25.8848585175       16.7393205468  MEMB      81              0.0000000000
      9912        81  QMPE      O12            31.7189828224       24.6264490427       18.8603276862  MEMB      81              0.0000000000
      9913        81  QMPE      C1             32.8461506363       25.4984350817       15.8625454081  MEMB      81              0.0000000000
      9914        81  QMPE      HA             32.3862033217       25.0693534275       14.9478705304  MEMB      81              0.0000000000
      9915        81  QMPE      HB             33.5379747480       24.7549092016       16.3200323363  MEMB      81              0.0000000000
      9916        81  QMPE      C2             33.6793146184       26.6903700341       15.3693601254  MEMB      81              0.0000000000
      9917        81  QMPE      HS             34.4895908073       26.8611086618       16.1176508200  MEMB      81              0.0000000000
      9918        81  QMPE      O21            32.7946526253       27.8018974439       15.3105550347  MEMB      81              0.0000000000
      9919        81  QMPE      C21            33.4202616610       28.9077281041       15.1795769410  MEMB      81              0.0000000000
      9920        81  QMPE      O22            34.5932631906       29.0831489272       15.3969219534  MEMB      81              0.0000000000
      9921        81  QMPE      C22            32.4935678068       29.9569151176       14.7748304339  MEMB      81              0.0000000000
      9922        81  QMPE      H2R            32.4457812839       30.7784259441       15.5296613093  MEMB      81              0.0000000000
      9923        81  QMPE      H2S            31.5212991141       29.4362160314       14.7422864339  MEMB      81              0.0000000000
      9924        81  QMPE      C3             34.3421194436       26.4270119311       13.9860368605  MEMB      81              0.0000000000
      9925        81  QMPE      HX             34.6234866940       25.3473660497       13.9885896561  MEMB      81              0.0000000000
      9926        81  QMPE      HY             35.2540782461       27.0604472249       13.8884493540  MEMB      81              0.0000000000
      9927        81  QMPE      O31            33.4048257078       26.6751634722       12.9215335264  MEMB      81              0.0000000000
      9928        81  QMPE      C31            33.8934933766       26.4860998966       11.7111099626  MEMB      81              0.0000000000
      9929        81  QMPE      O32            35.0692306170       26.5497846909       11.3973750635  MEMB      81              0.0000000000
      9930        81  QMPE      C32            32.7663365037       26.0335226154       10.8003793272  MEMB      81              0.0000000000
      9931        81  QMPE      H2X            32.1619649971       25.2694150476       11.3290981183  MEMB      81              0.0000000000
      9932        81  QMPE      H2Y            32.0888987546       26.8760503215       10.5753560961  MEMB      81              0.0000000000
      9933        81  QMPE      C23            32.8788750388       30.5760678444       13.4109077568  MEMB      81              0.0000000000
      9934        81  QMPE      H3R            33.9150808699       30.4149432454       13.1129175721  MEMB      81              0.0000000000
      9935        81  QMPE      H3S            32.6201488381       31.6448913797       13.6684730835  MEMB      81              0.0000000000
      9936        81  QMPE      C24            32.0467185792       30.1331590287       12.1961496392  MEMB      81              0.0000000000
      9937        81  QMPE      H4R            31.3472460660       30.8444465008       12.5617841415  MEMB      81              0.0000000000
      9938        81  QMPE      H4S            31.7417803466       29.0827071617       12.2164811322  MEMB      81              0.0000000000
      9939        81  QMPE      C25            32.0239491436       30.6076014355       10.7445255188  MEMB      81              0.0000000000
      9940        81  QMPE      H5R            31.7538805299       31.6752863809       10.7202268390  MEMB      81              0.0000000000
      9941        81  QMPE      H5S            31.3325012573       30.9895313560       10.0307878601  MEMB      81              0.0000000000
      9942        81  QMPE      C26            32.6708961037       29.6679107236        9.8062334830  MEMB      81              0.0000000000
      9943        81  QMPE      H6R            32.5801319928       28.5917150927        9.8440049490  MEMB      81              0.0000000000
      9944        81  QMPE      H6S            33.5205923324       29.5866777189       10.5051100283  MEMB      81              0.0000000000
      9945        81  QMPE      C27            32.8703047261       30.2191196502        8.3617962833  MEMB      81              0.0000000000
      9946        81  QMPE      H7R            33.2800111185       31.2441435021        8.2907094949  MEMB      81              0.0000000000
      9947        81  QMPE      H7S            31.9929636732       30.6798715343        7.9271722457  MEMB      81              0.0000000000
      9948        81  QMPE      C28            33.8915199349       29.3092215047        7.6375155889  MEMB      81              0.0000000000
      9949        81  QMPE      H8R            34.0042285434       29.5987833499        6.5766744470  MEMB      81              0.0000000000
      9950        81  QMPE      H8S            33.4374652209       28.3179133888        7.6851036341  MEMB      81              0.0000000000
      9951        81  QMPE      C29            35.3294681297       29.2490855129        8.2266675420  MEMB      81              0.0000000000
      9952        81  QMPE      H9R            35.5028155241       29.0883360516        9.3108232028  MEMB      81              0.0000000000
      9953        81  QMPE      C217           36.4263592988       29.9403231219        7.3637711179  MEMB      81              0.0000000000
      9954        81  QMPE      H17R           36.2037042955       30.3192770950        6.4025587538  MEMB      81              0.0000000000
      9955        81  QMPE      H17S           37.2708665563       30.3799818823        7.8113323873  MEMB      81              0.0000000000
      9956        81  QMPE      C210           36.3688409704       28.5129805270        7.5071319027  MEMB      81              0.0000000000
      9957        81  QMPE      H10R           37.1767288174       28.0484513084        8.1277301446  MEMB      81              0.0000000000
      9958        81  QMPE      C211           36.0503865970       28.1092250905        6.0569629830  MEMB      81              0.0000000000
      9959        81  QMPE      H11R           35.7082732275       28.8705469633        5.3809668395  MEMB      81              0.0000000000
      9960        81  QMPE      H11S           37.0504154400       27.8254654139        5.7348733094  MEMB      81              0.0000000000
      9961        81  QMPE      C212           34.9717739172       27.0254426972        5.9656803566  MEMB      81              0.0000000000
      9962        81  QMPE      H12R           34.0846153533       27.0042030952        6.5563591492  MEMB      81              0.0000000000
      9963        81  QMPE      H12S           35.7126504941       26.8620524169        6.7426870772  MEMB      81              0.0000000000
      9964        81  QMPE      C213           34.6920595246       25.9756925384        4.7649072260  MEMB      81              0.0000000000
      9965        81  QMPE      H13R           35.4749737297       25.6281618687        4.0848359922  MEMB      81              0.0000000000
      9966        81  QMPE      H13S           34.1734666818       26.5725410140        4.0433721178  MEMB      81              0.0000000000
      9967        81  QMPE      C214           34.0125794612       24.5820586436        4.9077108631  MEMB      81              0.0000000000
      9968        81  QMPE      H14R           33.1396705561       24.8231184489        5.5163233624  MEMB      81              0.0000000000
      9969        81  QMPE      H14S           34.5049435326       23.7228339673        5.4347125825  MEMB      81              0.0000000000
      9970        81  QMPE      C215           33.9325714321       23.8180604815        3.6007632444  MEMB      81              0.0000000000
      9971        81  QMPE      H15R           33.5996206367       24.5318610753        2.8328009737  MEMB      81              0.0000000000
      9972        81  QMPE      H15S           33.2180148138       23.0197671323        3.8060399666  MEMB      81              0.0000000000
      9973        81  QMPE      C216           35.2076122386       23.1547525333        3.0801503403  MEMB      81              0.0000000000
      9974        81  QMPE      H16R           35.0886171099       22.6382070254        2.1222054368  MEMB      81              0.0000000000
      9975        81  QMPE      H16S           35.7316076843       22.4855223459        3.8173511733  MEMB      81              0.0000000000
      9976        81  QMPE      H16T           35.8814447511       23.9825099836        2.8304431204  MEMB      81              0.0000000000
      9977        81  QMPE      C33            33.3752422585       25.4688944148        9.5099511181  MEMB      81              0.0000000000
      9978        81  QMPE      H3X            34.0705497821       24.6210297366        9.7231389881  MEMB      81              0.0000000000
      9979        81  QMPE      H3Y            33.9455609410       26.2676624402        8.9943410148  MEMB      81              0.0000000000
      9980        81  QMPE      C34            32.3349059007       24.9347975222        8.5583470045  MEMB      81              0.0000000000
      9981        81  QMPE      H4X            31.6280770675       24.3455099485        9.1795750375  MEMB      81              0.0000000000
      9982        81  QMPE      H4Y            32.8409791916       24.3152840253        7.7795913346  MEMB      81              0.0000000000
      9983        81  QMPE      C35            31.4675881327       25.9576271739        7.8825135922  MEMB      81              0.0000000000
      9984        81  QMPE      H5X            32.0908790519       26.7575743720        7.4305222471  MEMB      81              0.0000000000
      9985        81  QMPE      H5Y            30.8500316458       26.4071329744        8.7017110009  MEMB      81              0.0000000000
      9986        81  QMPE      C36            30.5963417256       25.3287581160        6.7815574016  MEMB      81              0.0000000000
      9987        81  QMPE      H6X            29.8516897649       24.6358782364        7.2267047675  MEMB      81              0.0000000000
      9988        81  QMPE      H6Y            31.1792060079       24.8578294947        5.9793089534  MEMB      81              0.0000000000
      9989        81  QMPE      C37            29.7205345178       26.2897465747        6.0698196016  MEMB      81              0.0000000000
      9990        81  QMPE      H7X            28.8595470511       25.9234423930        5.4923879056  MEMB      81              0.0000000000
      9991        81  QMPE      H7Y            29.2273553177       26.6666902064        6.9773964239  MEMB      81              0.0000000000
      9992        81  QMPE      C38            30.4133895728       27.3152248904        5.1922984539  MEMB      81              0.0000000000
      9993        81  QMPE      H8X            29.7314778954       27.8906807168        4.5201861190  MEMB      81              0.0000000000
      9994        81  QMPE      H8Y            30.9617196404       28.0827708363        5.7583617936  MEMB      81              0.0000000000
      9995        81  QMPE      C39            31.3313435418       26.7255478103        4.2954749678  MEMB      81              0.0000000000
      9996        81  QMPE      H9X            30.8665204653       25.8663388765        3.7631395037  MEMB      81              0.0000000000
      9997        81  QMPE      H9Y            32.2318873436       26.4528535131        4.8929900437  MEMB      81              0.0000000000
      9998        81  QMPE      C310           31.6346617126       27.8466749476        3.3692057572  MEMB      81              0.0000000000
      9999        81  QMPE      H10X           31.0059741765       28.0616318239        2.5014037488  MEMB      81              0.0000000000
     10000        81  QMPE      H10Y           32.2769143166       27.0273861659        2.9348167801  MEMB      81              0.0000000000
     10001        81  QMPE      C311           32.1123907268       29.2215954608        4.1430076206  MEMB      81              0.0000000000
     10002        81  QMPE      H11X           32.5705199611       28.8760383804        5.0674258572  MEMB      81              0.0000000000
     10003        81  QMPE      H11Y           31.1139404561       29.7014990847        4.3405918513  MEMB      81              0.0000000000
     10004        81  QMPE      C312           33.0899477246       30.4804051923        3.6913938559  MEMB      81              0.0000000000
     10005        81  QMPE      H12X           32.9910174599       31.5286762339        3.8286931207  MEMB      81              0.0000000000
     10006        81  QMPE      H12Y           32.3681863900       30.4461633422        2.9297223942  MEMB      81              0.0000000000
     10007        81  QMPE      C313           34.7020355117       30.7572312131        3.3069582509  MEMB      81              0.0000000000
     10008        81  QMPE      H13X           35.2243676427       30.7982000368        4.2298065515  MEMB      81              0.0000000000
     10009        81  QMPE      H13Y           35.0181649437       29.9030738820        3.8339617425  MEMB      81              0.0000000000
     10010        81  QMPE      C314           35.6741242613       30.8858089182        1.8214206014  MEMB      81              0.0000000000
     10011        81  QMPE      H14X           36.6105302057       31.0356454671        2.2509024423  MEMB      81              0.0000000000
     10012        81  QMPE      H14Y           35.5897823607       31.8982525660        1.5696398106  MEMB      81              0.0000000000
     10013        81  QMPE      C315           35.8517550608       30.0093152637        0.3066960737  MEMB      81              0.0000000000
     10014        81  QMPE      H15X           35.7902295885       28.9051259027        0.3262864277  MEMB      81              0.0000000000
     10015        81  QMPE      H15Y           34.9952038766       30.0475977079       -0.3839585419  MEMB      81              0.0000000000
     10016        81  QMPE      H15Z           36.4370694611       30.2062410733       -0.5144185485  MEMB      81              0.0000000000
     10017        82  PMPE      N             -41.4478635620       15.6062232463       19.5152503301  MEMB      82              0.0000000000
     10018        82  PMPE      HN1           -42.0008678471       15.8832966829       18.6689401333  MEMB      82              0.0000000000
     10019        82  PMPE      HN2           -42.1780415705       15.5463709197       20.2624258450  MEMB      82              0.0000000000
     10020        82  PMPE      HN3           -40.7750014251       16.3626358808       19.7746127517  MEMB      82              0.0000000000
     10021        82  PMPE      C12           -40.6987598572       14.2634049586       19.4621192859  MEMB      82              0.0000000000
     10022        82  PMPE      H12A          -41.4321266262       13.4489406590       19.5429773032  MEMB      82              0.0000000000
     10023        82  PMPE      H12B          -40.0277102448       14.0469132608       20.3148764642  MEMB      82              0.0000000000
     10024        82  PMPE      C11           -39.6884466310       14.1920519877       18.3463147947  MEMB      82              0.0000000000
     10025        82  PMPE      H11A          -38.9859968785       15.0638588078       18.3134376758  MEMB      82              0.0000000000
     10026        82  PMPE      H11B          -40.3065922821       14.1559116755       17.4257737391  MEMB      82              0.0000000000
     10027        82  PMPE      P             -37.4623828453       12.8763707233       18.9919470084  MEMB      82              0.0000000000
     10028        82  PMPE      O13           -37.2728239435       11.5254787305       19.5358869938  MEMB      82              0.0000000000
     10029        82  PMPE      O14           -37.0563351482       14.0711546798       19.7542182638  MEMB      82              0.0000000000
     10030        82  PMPE      O11           -36.8060832188       13.0404905856       17.5811719378  MEMB      82              0.0000000000
     10031        82  PMPE      O12           -38.9857911955       12.9754388866       18.5366586048  MEMB      82              0.0000000000
     10032        82  PMPE      C1            -37.5898642091       12.6397236236       16.4531633049  MEMB      82              0.0000000000
     10033        82  PMPE      HA            -38.5461278455       13.1478883706       16.3299393466  MEMB      82              0.0000000000
     10034        82  PMPE      HB            -37.7096083762       11.5010253327       16.4549313564  MEMB      82              0.0000000000
     10035        82  PMPE      C2            -36.8148212377       12.9625398860       15.1847532395  MEMB      82              0.0000000000
     10036        82  PMPE      HS            -36.1057783437       12.2883473379       15.5826133169  MEMB      82              0.0000000000
     10037        82  PMPE      O21           -36.1887572682       14.2364643849       14.9619530199  MEMB      82              0.0000000000
     10038        82  PMPE      C21           -35.0822799944       14.4541175822       14.2146145338  MEMB      82              0.0000000000
     10039        82  PMPE      O22           -34.4048496732       13.7637795601       13.4981892259  MEMB      82              0.0000000000
     10040        82  PMPE      C22           -34.7765213265       15.8876591830       14.2444550354  MEMB      82              0.0000000000
     10041        82  PMPE      H2R           -33.6895508359       16.0060032916       14.4286046208  MEMB      82              0.0000000000
     10042        82  PMPE      H2S           -35.3688435470       16.3197982972       15.0702812237  MEMB      82              0.0000000000
     10043        82  PMPE      C3            -37.7431044077       12.6726231230       13.9829471585  MEMB      82              0.0000000000
     10044        82  PMPE      HX            -38.6101916939       13.3464142232       14.0687804083  MEMB      82              0.0000000000
     10045        82  PMPE      HY            -38.1545639317       11.6280502964       14.0607469814  MEMB      82              0.0000000000
     10046        82  PMPE      O31           -37.0631168806       12.9882082507       12.7532358177  MEMB      82              0.0000000000
     10047        82  PMPE      C31           -36.8205479001       11.9838577549       11.9570945766  MEMB      82              0.0000000000
     10048        82  PMPE      O32           -37.3119243549       10.8706062795       12.0955812319  MEMB      82              0.0000000000
     10049        82  PMPE      C32           -35.9820364070       12.5277807686       10.7320497038  MEMB      82              0.0000000000
     10050        82  PMPE      H2X           -35.9717766126       13.6085375585       10.7356454975  MEMB      82              0.0000000000
     10051        82  PMPE      H2Y           -36.6071956037       12.0849099622        9.9184817610  MEMB      82              0.0000000000
     10052        82  PMPE      C23           -35.1758991766       16.3473148890       12.8386116548  MEMB      82              0.0000000000
     10053        82  PMPE      H3R           -34.9486063323       15.5933875968       12.0395304355  MEMB      82              0.0000000000
     10054        82  PMPE      H3S           -34.6156499959       17.2647682125       12.5702807179  MEMB      82              0.0000000000
     10055        82  PMPE      C24           -36.6754561808       16.6207638371       12.8361370470  MEMB      82              0.0000000000
     10056        82  PMPE      H4R           -36.9365955875       17.1424551816       13.7870354023  MEMB      82              0.0000000000
     10057        82  PMPE      H4S           -37.2197635140       15.6493080477       12.8294932663  MEMB      82              0.0000000000
     10058        82  PMPE      C25           -37.1100387927       17.4980739796       11.6702054551  MEMB      82              0.0000000000
     10059        82  PMPE      H5R           -36.5050484274       18.4310941555       11.6892788699  MEMB      82              0.0000000000
     10060        82  PMPE      H5S           -38.1641093444       17.8109792579       11.8577875741  MEMB      82              0.0000000000
     10061        82  PMPE      C26           -36.9788790758       16.8166643568       10.2941249570  MEMB      82              0.0000000000
     10062        82  PMPE      H6R           -36.0159551215       16.2728866500       10.1605632700  MEMB      82              0.0000000000
     10063        82  PMPE      H6S           -37.0161131872       17.6335210683        9.5418892615  MEMB      82              0.0000000000
     10064        82  PMPE      C27           -38.0882104115       15.7887783942       10.0689611969  MEMB      82              0.0000000000
     10065        82  PMPE      H7R           -39.0696863591       16.2405878078       10.3366206765  MEMB      82              0.0000000000
     10066        82  PMPE      H7S           -37.8859770426       14.9439001252       10.7678398873  MEMB      82              0.0000000000
     10067        82  PMPE      C28           -38.1771116777       15.1807455389        8.6634439847  MEMB      82              0.0000000000
     10068        82  PMPE      H8R           -37.4270208055       14.3656147760        8.6021737084  MEMB      82              0.0000000000
     10069        82  PMPE      H8S           -37.9497641850       15.9219328629        7.8645945556  MEMB      82              0.0000000000
     10070        82  PMPE      C29           -39.5909537502       14.6370572541        8.4821163803  MEMB      82              0.0000000000
     10071        82  PMPE      H9R           -40.4282250742       15.3594531312        8.5135424126  MEMB      82              0.0000000000
     10072        82  PMPE      C217          -39.8538108885       13.3430915706        9.2530641596  MEMB      82              0.0000000000
     10073        82  PMPE      H17R          -40.8338623405       13.3061913255        9.7077949135  MEMB      82              0.0000000000
     10074        82  PMPE      H17S          -38.9596358812       12.9534701812        9.7147585057  MEMB      82              0.0000000000
     10075        82  PMPE      C210          -39.8207282568       13.3493431685        7.7217655193  MEMB      82              0.0000000000
     10076        82  PMPE      H10R          -40.7893329795       13.3405885643        7.1979687396  MEMB      82              0.0000000000
     10077        82  PMPE      C211          -38.6179037527       12.6268849551        7.0769202343  MEMB      82              0.0000000000
     10078        82  PMPE      H11R          -37.9710207872       12.2094329475        7.8763088546  MEMB      82              0.0000000000
     10079        82  PMPE      H11S          -37.9959162101       13.3573892115        6.5180198456  MEMB      82              0.0000000000
     10080        82  PMPE      C212          -39.0341348487       11.5241233039        6.0644599264  MEMB      82              0.0000000000
     10081        82  PMPE      H12R          -40.0584260224       11.7771565506        5.7006141658  MEMB      82              0.0000000000
     10082        82  PMPE      H12S          -39.0801055064       10.5321026107        6.5610648218  MEMB      82              0.0000000000
     10083        82  PMPE      C213          -38.1598747207       11.4525392257        4.7880695804  MEMB      82              0.0000000000
     10084        82  PMPE      H13R          -38.0463568295       12.5064368264        4.4573953380  MEMB      82              0.0000000000
     10085        82  PMPE      H13S          -38.6732623701       10.8915697300        3.9743324479  MEMB      82              0.0000000000
     10086        82  PMPE      C214          -36.7254223629       10.9410062792        4.9727413007  MEMB      82              0.0000000000
     10087        82  PMPE      H14R          -36.7621300515        9.9982085875        5.5511951260  MEMB      82              0.0000000000
     10088        82  PMPE      H14S          -36.2273217340       11.7346696353        5.5756272743  MEMB      82              0.0000000000
     10089        82  PMPE      C215          -35.8594072821       10.6555978968        3.7158334020  MEMB      82              0.0000000000
     10090        82  PMPE      H15R          -36.2889367907        9.7760746276        3.1738579894  MEMB      82              0.0000000000
     10091        82  PMPE      H15S          -34.8022965572       10.4662203097        3.9489982720  MEMB      82              0.0000000000
     10092        82  PMPE      C216          -35.7630011657       11.8030960160        2.7649039077  MEMB      82              0.0000000000
     10093        82  PMPE      H16R          -35.3461351474       12.7579374381        3.1256795171  MEMB      82              0.0000000000
     10094        82  PMPE      H16S          -35.3864232596       11.5135358142        1.7569541596  MEMB      82              0.0000000000
     10095        82  PMPE      H16T          -36.8098491646       11.9996846194        2.7614975169  MEMB      82              0.0000000000
     10096        82  PMPE      C33           -34.5344414488       12.1115968357       10.2700114587  MEMB      82              0.0000000000
     10097        82  PMPE      H3X           -34.5471209959       11.4672043528        9.4099678758  MEMB      82              0.0000000000
     10098        82  PMPE      H3Y           -34.1873309247       11.5854951753       11.0966373370  MEMB      82              0.0000000000
     10099        82  PMPE      C34           -33.1609091747       12.6120041434       10.5466873121  MEMB      82              0.0000000000
     10100        82  PMPE      H4X           -32.4083313424       11.8575139440       10.1808489936  MEMB      82              0.0000000000
     10101        82  PMPE      H4Y           -32.9303536490       12.7909361155       11.6352957487  MEMB      82              0.0000000000
     10102        82  PMPE      C35           -33.2190350710       13.7825363823        9.7090669738  MEMB      82              0.0000000000
     10103        82  PMPE      H5X           -32.3198366197       14.2202511541       10.1492714183  MEMB      82              0.0000000000
     10104        82  PMPE      H5Y           -34.1094065539       14.3887303980       10.0040295383  MEMB      82              0.0000000000
     10105        82  PMPE      C36           -33.2375536808       13.4072955970        8.2063771027  MEMB      82              0.0000000000
     10106        82  PMPE      H6X           -33.9307800970       12.5958358408        7.9234274113  MEMB      82              0.0000000000
     10107        82  PMPE      H6Y           -32.2026859146       13.1170755565        7.9135137847  MEMB      82              0.0000000000
     10108        82  PMPE      C37           -33.7651247919       14.5533504500        7.3616870741  MEMB      82              0.0000000000
     10109        82  PMPE      H7X           -33.1515760749       15.2592920719        7.8236191289  MEMB      82              0.0000000000
     10110        82  PMPE      H7Y           -34.7416192779       14.9570055116        7.6573487390  MEMB      82              0.0000000000
     10111        82  PMPE      C38           -33.5199241132       14.4735365309        5.8481140862  MEMB      82              0.0000000000
     10112        82  PMPE      H8X           -33.6052455640       13.3869942588        5.6368062141  MEMB      82              0.0000000000
     10113        82  PMPE      H8Y           -32.4840367111       14.8050751371        5.5861157420  MEMB      82              0.0000000000
     10114        82  PMPE      C39           -34.4914213349       15.2803978178        4.9492885652  MEMB      82              0.0000000000
     10115        82  PMPE      H9X           -34.2332420011       15.0404041136        3.8921213615  MEMB      82              0.0000000000
     10116        82  PMPE      H9Y           -34.2856741643       16.3663272926        5.0759898775  MEMB      82              0.0000000000
     10117        82  PMPE      C310          -35.9902993013       14.9420888207        5.1515054507  MEMB      82              0.0000000000
     10118        82  PMPE      H10X          -36.2337922409       14.9631434618        6.2326915182  MEMB      82              0.0000000000
     10119        82  PMPE      H10Y          -36.1261187333       13.8920624051        4.8254653345  MEMB      82              0.0000000000
     10120        82  PMPE      C311          -37.0061807223       15.9194036858        4.4983311975  MEMB      82              0.0000000000
     10121        82  PMPE      H11X          -36.6441254327       16.2963887630        3.5221441128  MEMB      82              0.0000000000
     10122        82  PMPE      H11Y          -37.0475531799       16.7880159564        5.1887945829  MEMB      82              0.0000000000
     10123        82  PMPE      C312          -38.4740267405       15.4347067876        4.3782308428  MEMB      82              0.0000000000
     10124        82  PMPE      H12X          -38.7194992743       14.7317401437        5.1849020327  MEMB      82              0.0000000000
     10125        82  PMPE      H12Y          -38.6374629141       14.7694669023        3.5492132492  MEMB      82              0.0000000000
     10126        82  PMPE      C313          -39.5277667828       16.5582016669        4.2327627149  MEMB      82              0.0000000000
     10127        82  PMPE      H13X          -39.2105737026       17.3090626922        3.4740100456  MEMB      82              0.0000000000
     10128        82  PMPE      H13Y          -39.6080857888       17.0441345768        5.2259262951  MEMB      82              0.0000000000
     10129        82  PMPE      C314          -40.9332542288       16.0335549543        3.8800023365  MEMB      82              0.0000000000
     10130        82  PMPE      H14X          -41.2614248901       15.4510678888        4.7724008832  MEMB      82              0.0000000000
     10131        82  PMPE      H14Y          -40.8712053780       15.3554636618        3.0006636615  MEMB      82              0.0000000000
     10132        82  PMPE      C315          -42.0380674794       17.0815877285        3.6286301256  MEMB      82              0.0000000000
     10133        82  PMPE      H15X          -42.0192706830       17.8612983899        4.4217841326  MEMB      82              0.0000000000
     10134        82  PMPE      H15Y          -42.9961640864       16.5158474914        3.7285041106  MEMB      82              0.0000000000
     10135        82  PMPE      C316          -42.0179414556       17.7378837094        2.2445053557  MEMB      82              0.0000000000
     10136        82  PMPE      H16X          -42.2950639691       16.9831865913        1.4749068873  MEMB      82              0.0000000000
     10137        82  PMPE      H16Y          -41.0033057881       18.1402517110        2.0429757814  MEMB      82              0.0000000000
     10138        82  PMPE      H16Z          -42.7272199854       18.5907575465        2.1604843686  MEMB      82              0.0000000000
     10139        83  QMPE      N             -11.0465253893      -43.1099295236       19.8102633566  MEMB      83              0.0000000000
     10140        83  QMPE      HN1           -10.2042783482      -43.7224889752       19.8631513192  MEMB      83              0.0000000000
     10141        83  QMPE      HN2           -11.1630052879      -42.5388738259       20.6593913837  MEMB      83              0.0000000000
     10142        83  QMPE      HN3           -11.8052640321      -43.8363129219       19.7320936416  MEMB      83              0.0000000000
     10143        83  QMPE      C12           -10.9086168547      -42.3667253601       18.5331253274  MEMB      83              0.0000000000
     10144        83  QMPE      H12A          -11.0670961235      -43.1125194567       17.7090741460  MEMB      83              0.0000000000
     10145        83  QMPE      H12B           -9.9272184580      -41.8963815539       18.4715747284  MEMB      83              0.0000000000
     10146        83  QMPE      C11           -11.9376939628      -41.2714534265       18.4622263428  MEMB      83              0.0000000000
     10147        83  QMPE      H11A          -12.7915075218      -41.8765771112       18.7974610628  MEMB      83              0.0000000000
     10148        83  QMPE      H11B          -11.9329716329      -40.8482895714       17.4317971519  MEMB      83              0.0000000000
     10149        83  QMPE      P             -12.5464706424      -38.8268582709       19.0739332733  MEMB      83              0.0000000000
     10150        83  QMPE      O13           -12.4136763598      -38.0215554246       20.2880246599  MEMB      83              0.0000000000
     10151        83  QMPE      O14           -13.8722202215      -38.8644985853       18.4662614308  MEMB      83              0.0000000000
     10152        83  QMPE      O11           -11.5431008210      -38.4319659839       17.9623478932  MEMB      83              0.0000000000
     10153        83  QMPE      O12           -11.9540254629      -40.2538652400       19.3900444774  MEMB      83              0.0000000000
     10154        83  QMPE      C1            -10.3145602603      -37.9303794871       18.4677220634  MEMB      83              0.0000000000
     10155        83  QMPE      HA             -9.8890629237      -38.5639168362       19.2876666793  MEMB      83              0.0000000000
     10156        83  QMPE      HB            -10.4870308195      -36.9078525781       18.8619463413  MEMB      83              0.0000000000
     10157        83  QMPE      C2             -9.3116076920      -37.9814710229       17.3344246546  MEMB      83              0.0000000000
     10158        83  QMPE      HS             -8.3095535073      -37.6447812390       17.6830934618  MEMB      83              0.0000000000
     10159        83  QMPE      O21            -9.7987520992      -37.2440477535       16.2265878896  MEMB      83              0.0000000000
     10160        83  QMPE      C21            -9.0369020523      -36.2848182287       15.8604109652  MEMB      83              0.0000000000
     10161        83  QMPE      O22            -7.9975530496      -35.8716517345       16.3496736761  MEMB      83              0.0000000000
     10162        83  QMPE      C22            -9.7874974057      -35.5770788163       14.8266947016  MEMB      83              0.0000000000
     10163        83  QMPE      H2R            -9.8152164581      -34.6875971495       15.4706658936  MEMB      83              0.0000000000
     10164        83  QMPE      H2S           -10.8619753356      -35.7839883815       14.7218652106  MEMB      83              0.0000000000
     10165        83  QMPE      C3             -9.1669586809      -39.4186608099       16.8896399732  MEMB      83              0.0000000000
     10166        83  QMPE      HX            -10.1801959340      -39.8061065210       16.5897153775  MEMB      83              0.0000000000
     10167        83  QMPE      HY             -8.7631362065      -40.0137721648       17.7292108850  MEMB      83              0.0000000000
     10168        83  QMPE      O31            -8.2636195148      -39.4186354046       15.7956763530  MEMB      83              0.0000000000
     10169        83  QMPE      C31            -8.4599477701      -40.5027253222       15.1436923357  MEMB      83              0.0000000000
     10170        83  QMPE      O32            -8.8818586370      -41.5562101524       15.6042002053  MEMB      83              0.0000000000
     10171        83  QMPE      C32            -7.9611420079      -40.2810386493       13.7699999540  MEMB      83              0.0000000000
     10172        83  QMPE      H2X            -7.2136372809      -39.4683656061       13.6324072476  MEMB      83              0.0000000000
     10173        83  QMPE      H2Y            -7.4998085024      -41.2328109367       13.9739598908  MEMB      83              0.0000000000
     10174        83  QMPE      C23            -8.9404060222      -35.5707924519       13.5240002706  MEMB      83              0.0000000000
     10175        83  QMPE      H3R            -7.9625787658      -35.0814683292       13.7263960409  MEMB      83              0.0000000000
     10176        83  QMPE      H3S            -9.2918810662      -35.0241179560       12.6187603636  MEMB      83              0.0000000000
     10177        83  QMPE      C24            -9.0217567329      -36.8214585212       12.7180661494  MEMB      83              0.0000000000
     10178        83  QMPE      H4R            -8.4521623831      -37.5237657572       13.3396714830  MEMB      83              0.0000000000
     10179        83  QMPE      H4S            -8.4893156638      -36.5641079394       11.7672036996  MEMB      83              0.0000000000
     10180        83  QMPE      C25           -10.4259348167      -37.4056999425       12.4245250051  MEMB      83              0.0000000000
     10181        83  QMPE      H5R           -10.9617530127      -37.6776270248       13.3630059556  MEMB      83              0.0000000000
     10182        83  QMPE      H5S           -10.2522731585      -38.3103675752       11.8142150682  MEMB      83              0.0000000000
     10183        83  QMPE      C26           -11.4080772947      -36.5924312291       11.5987735437  MEMB      83              0.0000000000
     10184        83  QMPE      H6R           -11.5544831653      -35.6843125878       12.2198810423  MEMB      83              0.0000000000
     10185        83  QMPE      H6S           -12.4318706531      -37.0193378396       11.6046578990  MEMB      83              0.0000000000
     10186        83  QMPE      C27           -10.9679504143      -36.4813997086       10.0961160869  MEMB      83              0.0000000000
     10187        83  QMPE      H7R           -10.6606333417      -37.4779039435        9.7486455795  MEMB      83              0.0000000000
     10188        83  QMPE      H7S           -10.0692177458      -35.8141648651       10.0287692870  MEMB      83              0.0000000000
     10189        83  QMPE      C28           -12.0535931386      -36.1045684904        9.0296977947  MEMB      83              0.0000000000
     10190        83  QMPE      H8R           -12.7265879897      -36.8841427946        8.6796818431  MEMB      83              0.0000000000
     10191        83  QMPE      H8S           -11.5140341721      -35.5868310364        8.1919719323  MEMB      83              0.0000000000
     10192        83  QMPE      C29           -12.9488470164      -35.1597685840        9.7088878598  MEMB      83              0.0000000000
     10193        83  QMPE      H9R           -12.3421914822      -34.8224347179       10.4507812333  MEMB      83              0.0000000000
     10194        83  QMPE      C217          -14.1452424613      -35.3820059566       10.4665339092  MEMB      83              0.0000000000
     10195        83  QMPE      H17R          -14.5498112412      -36.3398219821       10.3099819678  MEMB      83              0.0000000000
     10196        83  QMPE      H17S          -13.9975437268      -34.8756787424       11.4392633074  MEMB      83              0.0000000000
     10197        83  QMPE      C210          -14.1524701817      -34.3867138663        9.2395091359  MEMB      83              0.0000000000
     10198        83  QMPE      H10R          -14.2441444932      -33.2826248106        9.4186513191  MEMB      83              0.0000000000
     10199        83  QMPE      C211          -14.4628304364      -34.8063024174        7.8146909286  MEMB      83              0.0000000000
     10200        83  QMPE      H11R          -14.3945816383      -35.8948255106        7.7878698697  MEMB      83              0.0000000000
     10201        83  QMPE      H11S          -15.4354530779      -34.4554147482        7.4342303578  MEMB      83              0.0000000000
     10202        83  QMPE      C212          -13.9305117537      -34.1076112196        6.6805310984  MEMB      83              0.0000000000
     10203        83  QMPE      H12R          -12.8733362863      -34.4010336637        6.7382326716  MEMB      83              0.0000000000
     10204        83  QMPE      H12S          -14.1688579777      -33.0004044184        6.6779902759  MEMB      83              0.0000000000
     10205        83  QMPE      C213          -14.3982417689      -34.7632602560        5.4557433781  MEMB      83              0.0000000000
     10206        83  QMPE      H13R          -15.3852477348      -34.3132967086        5.1842391463  MEMB      83              0.0000000000
     10207        83  QMPE      H13S          -14.4535886367      -35.8672017223        5.5658332662  MEMB      83              0.0000000000
     10208        83  QMPE      C214          -13.3306274100      -34.4500077465        4.4722489713  MEMB      83              0.0000000000
     10209        83  QMPE      H14R          -12.2841421869      -34.6052665282        4.6988130971  MEMB      83              0.0000000000
     10210        83  QMPE      H14S          -13.5615536907      -33.3625874090        4.3114737916  MEMB      83              0.0000000000
     10211        83  QMPE      C215          -13.4720975976      -35.3270400497        3.2940335404  MEMB      83              0.0000000000
     10212        83  QMPE      H15R          -14.3036178489      -36.0946049692        3.3814533200  MEMB      83              0.0000000000
     10213        83  QMPE      H15S          -12.6484793238      -35.5448457694        2.6074075675  MEMB      83              0.0000000000
     10214        83  QMPE      C216          -13.9652762888      -34.4153772242        2.4075898364  MEMB      83              0.0000000000
     10215        83  QMPE      H16R          -13.5128597349      -33.4714898654        2.0568173033  MEMB      83              0.0000000000
     10216        83  QMPE      H16S          -14.7698539786      -34.2413587912        3.1660044441  MEMB      83              0.0000000000
     10217        83  QMPE      H16T          -14.6909595122      -34.6897557020        1.6423849579  MEMB      83              0.0000000000
     10218        83  QMPE      C33            -8.8650503263      -40.5449894820       12.5693059200  MEMB      83              0.0000000000
     10219        83  QMPE      H3X            -8.5330440735      -39.8650586124       11.7550642892  MEMB      83              0.0000000000
     10220        83  QMPE      H3Y            -9.8668070597      -40.2368553917       12.9190973689  MEMB      83              0.0000000000
     10221        83  QMPE      C34            -8.9145278990      -41.9938021885       12.0243880862  MEMB      83              0.0000000000
     10222        83  QMPE      H4X            -9.1273139563      -42.6711098737       12.8830750481  MEMB      83              0.0000000000
     10223        83  QMPE      H4Y            -7.9973087708      -42.3816937533       11.5301142192  MEMB      83              0.0000000000
     10224        83  QMPE      C35            -9.9634078117      -42.1430019441       10.9154474712  MEMB      83              0.0000000000
     10225        83  QMPE      H5X           -10.9038777663      -41.7554523304       11.3551026776  MEMB      83              0.0000000000
     10226        83  QMPE      H5Y           -10.0494574476      -43.2311482680       10.6954302159  MEMB      83              0.0000000000
     10227        83  QMPE      C36            -9.6124469904      -41.3808742930        9.6172796308  MEMB      83              0.0000000000
     10228        83  QMPE      H6X            -8.6494358037      -41.7832248643        9.2293321400  MEMB      83              0.0000000000
     10229        83  QMPE      H6Y            -9.4326213806      -40.3120155438        9.8648024493  MEMB      83              0.0000000000
     10230        83  QMPE      C37           -10.6435552469      -41.4321022210        8.4651111887  MEMB      83              0.0000000000
     10231        83  QMPE      H7X           -10.1156349382      -41.0314283099        7.5685234412  MEMB      83              0.0000000000
     10232        83  QMPE      H7Y           -10.9997474365      -42.4480165693        8.1928557822  MEMB      83              0.0000000000
     10233        83  QMPE      C38           -11.8591532214      -40.5355307267        8.6643769014  MEMB      83              0.0000000000
     10234        83  QMPE      H8X           -12.4157129741      -40.8133479083        9.5888155373  MEMB      83              0.0000000000
     10235        83  QMPE      H8Y           -11.5124007905      -39.4847931369        8.7815297101  MEMB      83              0.0000000000
     10236        83  QMPE      C39           -12.8134213427      -40.5770207527        7.4692109086  MEMB      83              0.0000000000
     10237        83  QMPE      H9X           -13.5336071334      -39.8100158911        7.7426212691  MEMB      83              0.0000000000
     10238        83  QMPE      H9Y           -13.3274596310      -41.5595906604        7.3769584443  MEMB      83              0.0000000000
     10239        83  QMPE      C310          -12.2402488125      -40.0948471894        6.1327838117  MEMB      83              0.0000000000
     10240        83  QMPE      H10X          -13.0045973430      -40.2358011010        5.3334470596  MEMB      83              0.0000000000
     10241        83  QMPE      H10Y          -11.3836789914      -40.7452774878        5.8762447960  MEMB      83              0.0000000000
     10242        83  QMPE      C311          -11.8445177684      -38.6055882997        6.1832859809  MEMB      83              0.0000000000
     10243        83  QMPE      H11X          -11.0852213809      -38.4009915594        6.9697372926  MEMB      83              0.0000000000
     10244        83  QMPE      H11Y          -12.7466060247      -38.0018416212        6.4265320879  MEMB      83              0.0000000000
     10245        83  QMPE      C312          -11.2426227333      -38.0787262983        4.8924350348  MEMB      83              0.0000000000
     10246        83  QMPE      H12X          -11.1651282854      -36.9675990375        4.9663573033  MEMB      83              0.0000000000
     10247        83  QMPE      H12Y          -11.8868059088      -38.3117667313        4.0183358874  MEMB      83              0.0000000000
     10248        83  QMPE      C313           -9.8424229715      -38.6001981852        4.6789331367  MEMB      83              0.0000000000
     10249        83  QMPE      H13X           -9.2443638793      -38.6434072199        5.6202699336  MEMB      83              0.0000000000
     10250        83  QMPE      H13Y           -9.8525716725      -39.6360310818        4.2697887752  MEMB      83              0.0000000000
     10251        83  QMPE      C314           -9.1229874797      -37.6621199022        3.7315811240  MEMB      83              0.0000000000
     10252        83  QMPE      H14X           -8.1693924339      -38.0861744163        3.8475606736  MEMB      83              0.0000000000
     10253        83  QMPE      H14Y           -8.8846536255      -36.6520937680        4.0994088019  MEMB      83              0.0000000000
     10254        83  QMPE      C315           -9.6231029363      -37.7289429041        2.2797811624  MEMB      83              0.0000000000
     10255        83  QMPE      H15X          -10.0492583370      -38.7371827674        2.0559920210  MEMB      83              0.0000000000
     10256        83  QMPE      H15Y          -10.3589048462      -36.9423052413        2.0829122824  MEMB      83              0.0000000000
     10257        83  QMPE      H15Z           -8.8076829947      -37.6109130599        1.5338551797  MEMB      83              0.0000000000
     10258        84  POPE      N             -16.1158378316      -36.1365280186       20.8534270374  MEMB      84              0.0000000000
     10259        84  POPE      HN1           -15.4895229289      -36.7285666863       20.2568823826  MEMB      84              0.0000000000
     10260        84  POPE      HN2           -16.3143497894      -35.2551974015       20.3498064293  MEMB      84              0.0000000000
     10261        84  POPE      HN3           -15.6920476334      -36.0027719298       21.7986363270  MEMB      84              0.0000000000
     10262        84  POPE      C12           -17.4340099529      -36.8364547253       21.0069033734  MEMB      84              0.0000000000
     10263        84  POPE      H12A          -17.5931065475      -37.0074654376       22.0846810069  MEMB      84              0.0000000000
     10264        84  POPE      H12B          -17.3660444499      -37.8129516361       20.4811169570  MEMB      84              0.0000000000
     10265        84  POPE      C11           -18.6006762641      -36.0047361200       20.4591712744  MEMB      84              0.0000000000
     10266        84  POPE      H11A          -18.6896779542      -35.0140873259       20.9440611439  MEMB      84              0.0000000000
     10267        84  POPE      H11B          -19.5425719348      -36.5660660434       20.6685390435  MEMB      84              0.0000000000
     10268        84  POPE      P             -19.0048137310      -36.7943750391       18.0408899007  MEMB      84              0.0000000000
     10269        84  POPE      O13           -20.0805803127      -36.1972501378       17.2281149936  MEMB      84              0.0000000000
     10270        84  POPE      O14           -19.3006870877      -38.0331589590       18.7956161059  MEMB      84              0.0000000000
     10271        84  POPE      O11           -17.5995310094      -36.7637090324       17.3302406064  MEMB      84              0.0000000000
     10272        84  POPE      O12           -18.4387812775      -35.7552004864       19.0844469796  MEMB      84              0.0000000000
     10273        84  POPE      C1            -16.2524789907      -37.2305365120       17.6332989020  MEMB      84              0.0000000000
     10274        84  POPE      HA            -16.4122799337      -38.0619442686       18.2559173966  MEMB      84              0.0000000000
     10275        84  POPE      HB            -15.8761652305      -36.5831810571       18.4061650939  MEMB      84              0.0000000000
     10276        84  POPE      C2            -15.0682676204      -37.5870563442       16.4115212712  MEMB      84              0.0000000000
     10277        84  POPE      HS            -14.0750864111      -37.4763143321       16.8230160917  MEMB      84              0.0000000000
     10278        84  POPE      O21           -15.1132821985      -36.5002176194       15.3854098343  MEMB      84              0.0000000000
     10279        84  POPE      C21           -15.4937930728      -35.2730524118       15.7638231385  MEMB      84              0.0000000000
     10280        84  POPE      O22           -15.5757700254      -34.9059990105       16.9136462493  MEMB      84              0.0000000000
     10281        84  POPE      C22           -15.7266980505      -34.2308950792       14.6680887632  MEMB      84              0.0000000000
     10282        84  POPE      H2R           -14.8415956335      -33.5694511337       14.5767304574  MEMB      84              0.0000000000
     10283        84  POPE      H2S           -16.5613289053      -33.5768658900       15.0217894928  MEMB      84              0.0000000000
     10284        84  POPE      C3            -15.0705981004      -39.2743654894       15.5496507170  MEMB      84              0.0000000000
     10285        84  POPE      HX            -14.5342818726      -39.6688587561       16.3909379007  MEMB      84              0.0000000000
     10286        84  POPE      HY            -14.1686309989      -39.0612700300       14.9324438434  MEMB      84              0.0000000000
     10287        84  POPE      O31           -16.3054313667      -40.3467335002       14.7859538808  MEMB      84              0.0000000000
     10288        84  POPE      C31           -17.9702287117      -40.5159944339       14.5373587954  MEMB      84              0.0000000000
     10289        84  POPE      O32           -18.6881564897      -41.1648156960       15.2237488807  MEMB      84              0.0000000000
     10290        84  POPE      C32           -19.0079717460      -39.7237356749       13.6529304721  MEMB      84              0.0000000000
     10291        84  POPE      H2X           -20.0130145271      -39.9842044185       14.0873690834  MEMB      84              0.0000000000
     10292        84  POPE      H2Y           -18.7722495511      -40.4775620455       12.8885202543  MEMB      84              0.0000000000
     10293        84  POPE      C23           -16.1552070592      -34.7539116677       13.3007544314  MEMB      84              0.0000000000
     10294        84  POPE      H3R           -17.0214429608      -35.4429591531       13.4311909393  MEMB      84              0.0000000000
     10295        84  POPE      H3S           -15.3169929677      -35.3397169597       12.8621029707  MEMB      84              0.0000000000
     10296        84  POPE      C24           -16.6965316415      -33.5654675056       12.4876675642  MEMB      84              0.0000000000
     10297        84  POPE      H4R           -16.2080768932      -32.6242787489       12.8034707941  MEMB      84              0.0000000000
     10298        84  POPE      H4S           -17.7840051912      -33.5410468510       12.6117726527  MEMB      84              0.0000000000
     10299        84  POPE      C25           -16.4986730064      -33.6096239408       11.0185341206  MEMB      84              0.0000000000
     10300        84  POPE      H5R           -15.4584634713      -33.7652805494       11.0851198856  MEMB      84              0.0000000000
     10301        84  POPE      H5S           -16.4110481115      -32.7036180219       10.3888407824  MEMB      84              0.0000000000
     10302        84  POPE      C26           -17.2925095644      -34.7097752693       10.3956453159  MEMB      84              0.0000000000
     10303        84  POPE      H6R           -18.3731574268      -34.5499855068       10.4418178626  MEMB      84              0.0000000000
     10304        84  POPE      H6S           -16.9568279640      -35.7291988151       10.7679127953  MEMB      84              0.0000000000
     10305        84  POPE      C27           -17.0148634857      -34.5884940486        8.9756347114  MEMB      84              0.0000000000
     10306        84  POPE      H7R           -16.1123217521      -35.2216209019        9.1257425091  MEMB      84              0.0000000000
     10307        84  POPE      H7S           -16.9437775330      -33.6565621282        8.3877984808  MEMB      84              0.0000000000
     10308        84  POPE      C28           -17.5604836507      -35.5117169360        8.0776844087  MEMB      84              0.0000000000
     10309        84  POPE      H8R           -17.5160069012      -36.3128866409        8.7401372257  MEMB      84              0.0000000000
     10310        84  POPE      H8S           -16.7941916794      -35.9095389867        7.3772036447  MEMB      84              0.0000000000
     10311        84  POPE      C29           -18.9417510410      -35.5543443622        7.6699265217  MEMB      84              0.0000000000
     10312        84  POPE      H91           -19.6371193501      -36.2450618806        8.1575406541  MEMB      84              0.0000000000
     10313        84  POPE      C210          -18.9879839668      -35.3917060393        6.3990272283  MEMB      84              0.0000000000
     10314        84  POPE      H101          -19.8486648255      -35.7774165289        5.8587816133  MEMB      84              0.0000000000
     10315        84  POPE      C211          -17.8261716205      -35.0881490062        5.5342219228  MEMB      84              0.0000000000
     10316        84  POPE      H11R          -16.8125871192      -35.5093438279        5.6513966601  MEMB      84              0.0000000000
     10317        84  POPE      H11S          -17.6892693718      -33.9863136568        5.6759366004  MEMB      84              0.0000000000
     10318        84  POPE      C212          -18.2526163899      -35.5763397137        4.2097256072  MEMB      84              0.0000000000
     10319        84  POPE      H12R          -19.1724798494      -35.1658307936        3.8402279770  MEMB      84              0.0000000000
     10320        84  POPE      H12S          -18.5507073646      -36.5720529930        4.0521818419  MEMB      84              0.0000000000
     10321        84  POPE      C213          -17.2240618507      -35.1955458168        3.2794387339  MEMB      84              0.0000000000
     10322        84  POPE      H13R          -16.1693304594      -35.4632150017        3.3710706828  MEMB      84              0.0000000000
     10323        84  POPE      H13S          -16.9689349539      -34.2177916820        3.6483987442  MEMB      84              0.0000000000
     10324        84  POPE      C214          -17.6001981696      -35.5287204887        1.7891565838  MEMB      84              0.0000000000
     10325        84  POPE      H14R          -17.5629542515      -36.4161021328        2.1772827971  MEMB      84              0.0000000000
     10326        84  POPE      H14S          -16.7708709208      -35.5258006266        1.0986937988  MEMB      84              0.0000000000
     10327        84  POPE      C215          -18.6772446492      -34.9306714341        0.8373116492  MEMB      84              0.0000000000
     10328        84  POPE      H15R          -18.7411088585      -33.9144582500        0.4037573820  MEMB      84              0.0000000000
     10329        84  POPE      H15S          -19.5763909776      -34.8657349632        1.3919068445  MEMB      84              0.0000000000
     10330        84  POPE      C216          -18.8492300006      -35.1214706364       -0.5266993080  MEMB      84              0.0000000000
     10331        84  POPE      H16R          -19.8551268458      -34.8083784053       -0.8830042048  MEMB      84              0.0000000000
     10332        84  POPE      H16S          -18.4979720167      -36.1218393108       -0.4107536091  MEMB      84              0.0000000000
     10333        84  POPE      C217          -18.0270408822      -35.1957582864       -1.5789966547  MEMB      84              0.0000000000
     10334        84  POPE      H17R          -17.5859989666      -34.3483073497       -1.1057536227  MEMB      84              0.0000000000
     10335        84  POPE      H17S          -18.5507884024      -34.9225305768       -2.4353547787  MEMB      84              0.0000000000
     10336        84  POPE      C218          -17.2410163701      -36.3477127920       -2.0040965964  MEMB      84              0.0000000000
     10337        84  POPE      H18R          -16.4949355660      -36.0652793756       -2.7307792357  MEMB      84              0.0000000000
     10338        84  POPE      H18S          -17.7031998820      -37.2630999598       -2.3819252356  MEMB      84              0.0000000000
     10339        84  POPE      H18T          -16.7468138379      -36.4917013424       -1.0411662900  MEMB      84              0.0000000000
     10340        84  POPE      C33           -19.2198736609      -38.1550911824       13.3173583398  MEMB      84              0.0000000000
     10341        84  POPE      H3X           -18.3824135609      -37.4926904500       13.0268491780  MEMB      84              0.0000000000
     10342        84  POPE      H3Y           -19.5492638435      -37.4683513455       14.1147127692  MEMB      84              0.0000000000
     10343        84  POPE      C34           -20.1685630863      -37.9901268886       12.2084390258  MEMB      84              0.0000000000
     10344        84  POPE      H4X           -20.1861211210      -36.8900163696       12.0389384306  MEMB      84              0.0000000000
     10345        84  POPE      H4Y           -21.0575974458      -38.5411542687       12.5503097441  MEMB      84              0.0000000000
     10346        84  POPE      C35           -19.7191435343      -38.6476727385       10.9724534584  MEMB      84              0.0000000000
     10347        84  POPE      H5X           -19.3938558292      -39.6636832260       11.3059706376  MEMB      84              0.0000000000
     10348        84  POPE      H5Y           -18.8525945229      -38.0084695222       10.6852998281  MEMB      84              0.0000000000
     10349        84  POPE      C36           -20.7318558557      -38.7853100946        9.8432696380  MEMB      84              0.0000000000
     10350        84  POPE      H6X           -21.0006554399      -37.7379423859        9.5593105219  MEMB      84              0.0000000000
     10351        84  POPE      H6Y           -21.5524643792      -39.4207933701       10.1861281155  MEMB      84              0.0000000000
     10352        84  POPE      C37           -20.3880321266      -39.4590138247        8.5123862745  MEMB      84              0.0000000000
     10353        84  POPE      H7X           -19.8650747384      -40.4309113602        8.5051328464  MEMB      84              0.0000000000
     10354        84  POPE      H7Y           -19.7228256505      -38.7007712060        8.2694426927  MEMB      84              0.0000000000
     10355        84  POPE      C38           -21.3336987877      -39.1619830360        7.3528975715  MEMB      84              0.0000000000
     10356        84  POPE      H8X           -21.4498103202      -38.0573855516        7.2531028717  MEMB      84              0.0000000000
     10357        84  POPE      H8Y           -22.2894407227      -39.6088695639        7.6830030200  MEMB      84              0.0000000000
     10358        84  POPE      C39           -20.9150200616      -39.6869002313        5.9624839456  MEMB      84              0.0000000000
     10359        84  POPE      H9X           -21.0306175593      -40.7805829255        6.0794931286  MEMB      84              0.0000000000
     10360        84  POPE      H9Y           -19.9031116648      -39.4017230642        5.6175737558  MEMB      84              0.0000000000
     10361        84  POPE      C310          -21.8992095962      -39.2553432240        4.8835132558  MEMB      84              0.0000000000
     10362        84  POPE      H10X          -22.7272263721      -39.2909612506        5.5390883088  MEMB      84              0.0000000000
     10363        84  POPE      H10Y          -22.1032019865      -39.9727826899        4.0633340995  MEMB      84              0.0000000000
     10364        84  POPE      C311          -21.9193095266      -37.7797108111        4.5147061091  MEMB      84              0.0000000000
     10365        84  POPE      H11X          -20.9591505840      -37.5967369004        3.9923267686  MEMB      84              0.0000000000
     10366        84  POPE      H11Y          -21.9761979282      -37.1782509187        5.4409898031  MEMB      84              0.0000000000
     10367        84  POPE      C312          -23.1050424997      -37.3108970399        3.6766463098  MEMB      84              0.0000000000
     10368        84  POPE      H12X          -23.0331136520      -36.2073666264        3.5767147023  MEMB      84              0.0000000000
     10369        84  POPE      H12Y          -24.1262597038      -37.4931747276        4.0492776381  MEMB      84              0.0000000000
     10370        84  POPE      C313          -23.0684038995      -37.9883730840        2.3588153616  MEMB      84              0.0000000000
     10371        84  POPE      H13X          -23.1928522400      -39.0776887502        2.2555182780  MEMB      84              0.0000000000
     10372        84  POPE      H13Y          -22.0189430200      -38.0403194337        2.1694365485  MEMB      84              0.0000000000
     10373        84  POPE      C314          -24.0743205457      -37.3462227323        1.4429109287  MEMB      84              0.0000000000
     10374        84  POPE      H14X          -23.6750686163      -36.3395115964        1.1832812704  MEMB      84              0.0000000000
     10375        84  POPE      H14Y          -25.0733083031      -37.1751375624        1.8034804931  MEMB      84              0.0000000000
     10376        84  POPE      C315          -24.3094210944      -38.2415805928        0.2926382525  MEMB      84              0.0000000000
     10377        84  POPE      H15X          -25.0757980446      -37.6900635521       -0.3004317188  MEMB      84              0.0000000000
     10378        84  POPE      H15Y          -24.3121453574      -39.3192623047        0.0440696795  MEMB      84              0.0000000000
     10379        84  POPE      C316          -22.9322864773      -38.1009480241        0.0388348602  MEMB      84              0.0000000000
     10380        84  POPE      H16X          -22.1922764587      -38.8805731180       -0.2707867682  MEMB      84              0.0000000000
     10381        84  POPE      H16Y          -22.7980689680      -37.0067843862       -0.2074007171  MEMB      84              0.0000000000
     10382        84  POPE      H16Z          -22.9398499036      -37.9533439885       -0.8841637863  MEMB      84              0.0000000000
     10383        85  POPE      N              19.3248940188      -39.0511060233       21.5978351769  MEMB      85              0.0000000000
     10384        85  POPE      HN1            19.1787780517      -38.1516457252       22.1051718309  MEMB      85              0.0000000000
     10385        85  POPE      HN2            19.5015545107      -39.8521445003       22.2486834790  MEMB      85              0.0000000000
     10386        85  POPE      HN3            20.1223003635      -38.9434306331       20.9397951833  MEMB      85              0.0000000000
     10387        85  POPE      C12            18.1228585157      -39.2543634203       20.7306809753  MEMB      85              0.0000000000
     10388        85  POPE      H12A           17.3502613836      -38.6652240276       21.1971302152  MEMB      85              0.0000000000
     10389        85  POPE      H12B           17.7533092574      -40.2881840818       20.8079952284  MEMB      85              0.0000000000
     10390        85  POPE      C11            18.3935732894      -38.7632217109       19.2976132236  MEMB      85              0.0000000000
     10391        85  POPE      H11A           17.5049740215      -39.0194175562       18.6687345274  MEMB      85              0.0000000000
     10392        85  POPE      H11B           19.2666330618      -39.3143346733       18.8813124509  MEMB      85              0.0000000000
     10393        85  POPE      P              18.1443354408      -36.4198265161       18.0875898973  MEMB      85              0.0000000000
     10394        85  POPE      O13            18.6135145963      -35.0369378516       18.2561492163  MEMB      85              0.0000000000
     10395        85  POPE      O14            16.7010896687      -36.6504830266       18.0098248274  MEMB      85              0.0000000000
     10396        85  POPE      O11            18.8051757056      -37.0931982344       16.8264905004  MEMB      85              0.0000000000
     10397        85  POPE      O12            18.6887310804      -37.3609303646       19.2839955652  MEMB      85              0.0000000000
     10398        85  POPE      C1             20.2218940836      -37.1914084167       16.7619206352  MEMB      85              0.0000000000
     10399        85  POPE      HA             20.4674505053      -38.0258696158       16.0729103406  MEMB      85              0.0000000000
     10400        85  POPE      HB             20.6550769273      -37.4206207016       17.7583467245  MEMB      85              0.0000000000
     10401        85  POPE      C2             20.8872191687      -35.9000623655       16.2229886504  MEMB      85              0.0000000000
     10402        85  POPE      HS             20.7255330889      -35.1063232663       16.9928736815  MEMB      85              0.0000000000
     10403        85  POPE      O21            20.2641576267      -35.5485277971       14.9889813490  MEMB      85              0.0000000000
     10404        85  POPE      C21            20.3176976893      -34.2635564832       14.6905262633  MEMB      85              0.0000000000
     10405        85  POPE      O22            20.8842238043      -33.4162329505       15.3630863336  MEMB      85              0.0000000000
     10406        85  POPE      C22            19.6935543017      -34.1141356782       13.2982414090  MEMB      85              0.0000000000
     10407        85  POPE      H2R            20.5093748678      -34.2281275440       12.5641974956  MEMB      85              0.0000000000
     10408        85  POPE      H2S            19.2575036351      -33.1277676347       13.1395882496  MEMB      85              0.0000000000
     10409        85  POPE      C3             22.4137354033      -36.0831523841       15.9981356790  MEMB      85              0.0000000000
     10410        85  POPE      HX             22.8640420197      -36.3683200313       16.9730661081  MEMB      85              0.0000000000
     10411        85  POPE      HY             22.8482450367      -35.1068149188       15.6879168955  MEMB      85              0.0000000000
     10412        85  POPE      O31            22.7109205198      -37.1390265256       15.0668992219  MEMB      85              0.0000000000
     10413        85  POPE      C31            22.8155849583      -36.7989906190       13.7804821105  MEMB      85              0.0000000000
     10414        85  POPE      O32            22.7651678231      -35.6703983326       13.3348954169  MEMB      85              0.0000000000
     10415        85  POPE      C32            23.2351064024      -38.0142683414       12.9565584340  MEMB      85              0.0000000000
     10416        85  POPE      H2X            22.7253092047      -38.9349765374       13.3173966463  MEMB      85              0.0000000000
     10417        85  POPE      H2Y            24.3244078251      -38.0190563269       13.1140968513  MEMB      85              0.0000000000
     10418        85  POPE      C23            18.5665871157      -35.1176761550       13.0225334345  MEMB      85              0.0000000000
     10419        85  POPE      H3R            18.9811945915      -36.1502764485       13.0344553382  MEMB      85              0.0000000000
     10420        85  POPE      H3S            18.1862351336      -34.9356425874       11.9947975098  MEMB      85              0.0000000000
     10421        85  POPE      C24            17.4285363537      -34.9766177611       14.0460575595  MEMB      85              0.0000000000
     10422        85  POPE      H4R            17.0135742489      -33.9409375976       14.0585559239  MEMB      85              0.0000000000
     10423        85  POPE      H4S            17.8400861045      -35.1438510010       15.0626287879  MEMB      85              0.0000000000
     10424        85  POPE      C25            16.3402842500      -36.0115041262       13.7892902941  MEMB      85              0.0000000000
     10425        85  POPE      H5R            15.6032093957      -36.0231732493       14.6176426803  MEMB      85              0.0000000000
     10426        85  POPE      H5S            16.7724142336      -37.0346772883       13.8393635619  MEMB      85              0.0000000000
     10427        85  POPE      C26            15.7693297946      -35.8098924664       12.3893530543  MEMB      85              0.0000000000
     10428        85  POPE      H6R            16.1287864488      -34.8712526900       11.9311165576  MEMB      85              0.0000000000
     10429        85  POPE      H6S            14.6904402383      -35.6370734223       12.3306910150  MEMB      85              0.0000000000
     10430        85  POPE      C27            16.0450708637      -37.0030283572       11.5030547696  MEMB      85              0.0000000000
     10431        85  POPE      H7R            15.6178780030      -37.9308028943       11.8918514243  MEMB      85              0.0000000000
     10432        85  POPE      H7S            17.0540196916      -37.1801091229       11.1298889804  MEMB      85              0.0000000000
     10433        85  POPE      C28            15.4567642752      -36.7574142236       10.2177762477  MEMB      85              0.0000000000
     10434        85  POPE      H8R            15.6814487549      -35.7542495450        9.7735485502  MEMB      85              0.0000000000
     10435        85  POPE      H8S            14.6222665437      -36.0967995684       10.3894501171  MEMB      85              0.0000000000
     10436        85  POPE      C29            15.1309053449      -38.0794210631        9.4548389603  MEMB      85              0.0000000000
     10437        85  POPE      H91            14.2022654955      -38.5935856619        9.6535469722  MEMB      85              0.0000000000
     10438        85  POPE      C210           15.5527641725      -38.3654273902        8.2418685939  MEMB      85              0.0000000000
     10439        85  POPE      H101           14.8733400845      -38.9694804191        7.6006794788  MEMB      85              0.0000000000
     10440        85  POPE      C211           16.4172226708      -37.3282986988        7.6257570582  MEMB      85              0.0000000000
     10441        85  POPE      H11R           17.3871880062      -37.8149086284        7.7193732690  MEMB      85              0.0000000000
     10442        85  POPE      H11S           16.4970688935      -36.3639359862        8.1773137603  MEMB      85              0.0000000000
     10443        85  POPE      C212           16.1271170647      -36.8638797369        6.2105824307  MEMB      85              0.0000000000
     10444        85  POPE      H12R           15.1807253487      -36.3147113163        6.1301398541  MEMB      85              0.0000000000
     10445        85  POPE      H12S           15.9967223725      -37.7822588878        5.6206182563  MEMB      85              0.0000000000
     10446        85  POPE      C213           17.2773867860      -35.9892794199        5.7039643861  MEMB      85              0.0000000000
     10447        85  POPE      H13R           17.4084616339      -35.0562264175        6.2925391801  MEMB      85              0.0000000000
     10448        85  POPE      H13S           17.1095553647      -35.6979889819        4.6469991587  MEMB      85              0.0000000000
     10449        85  POPE      C214           18.5920887897      -36.7224270395        5.8362017677  MEMB      85              0.0000000000
     10450        85  POPE      H14R           18.3768128953      -37.8303068674        5.8767384309  MEMB      85              0.0000000000
     10451        85  POPE      H14S           19.1818025154      -36.4411955644        6.7221226910  MEMB      85              0.0000000000
     10452        85  POPE      C215           19.5191460072      -36.4214648977        4.7024128172  MEMB      85              0.0000000000
     10453        85  POPE      H15R           19.4696014627      -35.5422113484        4.0424935219  MEMB      85              0.0000000000
     10454        85  POPE      H15S           19.2098538691      -37.2976749551        4.1404678910  MEMB      85              0.0000000000
     10455        85  POPE      C216           20.8934554196      -36.8890366841        4.8577111165  MEMB      85              0.0000000000
     10456        85  POPE      H16R           20.5427857027      -37.8749890991        5.2740441174  MEMB      85              0.0000000000
     10457        85  POPE      H16S           21.4824616935      -36.7307894379        5.7484922469  MEMB      85              0.0000000000
     10458        85  POPE      C217           21.6576421794      -36.6475042302        3.4647986297  MEMB      85              0.0000000000
     10459        85  POPE      H17R           22.7332073265      -36.8826156833        3.4978799948  MEMB      85              0.0000000000
     10460        85  POPE      H17S           21.9533037088      -35.6188990958        3.4388008356  MEMB      85              0.0000000000
     10461        85  POPE      C218           21.2517538724      -37.2744198976        2.0704733787  MEMB      85              0.0000000000
     10462        85  POPE      H18R           20.2831525857      -36.9505718827        1.6993492332  MEMB      85              0.0000000000
     10463        85  POPE      H18S           21.0781717396      -38.3098396825        1.8655006105  MEMB      85              0.0000000000
     10464        85  POPE      H18T           22.1409290818      -37.3388289102        1.3921276537  MEMB      85              0.0000000000
     10465        85  POPE      C33            23.0939096363      -37.9965742440       11.4447195291  MEMB      85              0.0000000000
     10466        85  POPE      H3X            23.5620274079      -38.9226455923       11.0357237607  MEMB      85              0.0000000000
     10467        85  POPE      H3Y            23.6344293752      -37.1074788065       11.0644656885  MEMB      85              0.0000000000
     10468        85  POPE      C34            21.6208882703      -38.0924725096       11.1332566023  MEMB      85              0.0000000000
     10469        85  POPE      H4X            21.1030560397      -37.4415119265       11.8745950894  MEMB      85              0.0000000000
     10470        85  POPE      H4Y            21.3202172041      -39.1502683020       11.3218012197  MEMB      85              0.0000000000
     10471        85  POPE      C35            21.2546114545      -37.6475749258        9.7216646603  MEMB      85              0.0000000000
     10472        85  POPE      H5X            22.0943979160      -37.8595967530        9.0225067683  MEMB      85              0.0000000000
     10473        85  POPE      H5Y            21.1496612539      -36.5408449504        9.7663503273  MEMB      85              0.0000000000
     10474        85  POPE      C36            19.9125515586      -38.2363632721        9.2511810758  MEMB      85              0.0000000000
     10475        85  POPE      H6X            19.4444798119      -37.5774892029        8.4960681312  MEMB      85              0.0000000000
     10476        85  POPE      H6Y            19.1878864209      -38.2849818541       10.0932894093  MEMB      85              0.0000000000
     10477        85  POPE      C37            19.9947026193      -39.6718230732        8.7562655556  MEMB      85              0.0000000000
     10478        85  POPE      H7X            18.9732220320      -40.0749806092        8.5759199819  MEMB      85              0.0000000000
     10479        85  POPE      H7Y            20.4950693239      -40.2874736699        9.5390864110  MEMB      85              0.0000000000
     10480        85  POPE      C38            20.7659758179      -39.8987786147        7.4811714500  MEMB      85              0.0000000000
     10481        85  POPE      H8X            21.7198119110      -39.3414193813        7.5635764644  MEMB      85              0.0000000000
     10482        85  POPE      H8Y            20.2057788322      -39.5068068730        6.6116416306  MEMB      85              0.0000000000
     10483        85  POPE      C39            20.8411271034      -41.4320910257        7.3530677249  MEMB      85              0.0000000000
     10484        85  POPE      H9X            19.8422971324      -41.7993528661        7.1494681656  MEMB      85              0.0000000000
     10485        85  POPE      H9Y            21.1600261829      -41.8770564187        8.3165576158  MEMB      85              0.0000000000
     10486        85  POPE      C310           21.7979335369      -42.0006343125        6.3176555292  MEMB      85              0.0000000000
     10487        85  POPE      H10X           22.4622177240      -42.8374354392        6.2708254006  MEMB      85              0.0000000000
     10488        85  POPE      H10Y           22.4697805927      -41.2674929954        6.6438422844  MEMB      85              0.0000000000
     10489        85  POPE      C311           21.5514625621      -41.9388591379        4.9113259067  MEMB      85              0.0000000000
     10490        85  POPE      H11X           22.5026701612      -41.8498343903        4.3172693140  MEMB      85              0.0000000000
     10491        85  POPE      H11Y           21.0011945628      -41.1295679224        5.1905331445  MEMB      85              0.0000000000
     10492        85  POPE      C312           20.4711024375      -42.7534675234        4.3702835931  MEMB      85              0.0000000000
     10493        85  POPE      H12X           19.9788007779      -42.7769786815        5.2962665129  MEMB      85              0.0000000000
     10494        85  POPE      H12Y           21.3307935889      -43.2718323155        4.0054368776  MEMB      85              0.0000000000
     10495        85  POPE      C313           19.2083553908      -42.7697150807        3.5275656733  MEMB      85              0.0000000000
     10496        85  POPE      H13X           18.7973267820      -43.5843098019        2.9690735582  MEMB      85              0.0000000000
     10497        85  POPE      H13Y           19.9650748735      -42.6922367828        2.7156867528  MEMB      85              0.0000000000
     10498        85  POPE      C314           18.0071224459      -41.8581847620        3.9930990623  MEMB      85              0.0000000000
     10499        85  POPE      H14X           18.1393450594      -40.8613343515        4.4902710464  MEMB      85              0.0000000000
     10500        85  POPE      H14Y           17.8243389423      -42.0656471788        5.0592265017  MEMB      85              0.0000000000
     10501        85  POPE      C315           17.1697134459      -41.2774632472        2.7669101079  MEMB      85              0.0000000000
     10502        85  POPE      H15X           16.4346339763      -40.5836899136        3.2611799171  MEMB      85              0.0000000000
     10503        85  POPE      H15Y           16.7203499882      -42.1887770099        2.3742710204  MEMB      85              0.0000000000
     10504        85  POPE      C316           17.7139540671      -40.6349540279        1.3769618583  MEMB      85              0.0000000000
     10505        85  POPE      H16X           18.5799312413      -40.9605671650        0.7936610715  MEMB      85              0.0000000000
     10506        85  POPE      H16Y           18.0442947190      -39.6026291504        1.4857252534  MEMB      85              0.0000000000
     10507        85  POPE      H16Z           17.0197887800      -40.5483394877        0.6300263036  MEMB      85              0.0000000000
     10508        86  QMPE      N             -38.8046300381      -21.5500115600       19.6747313935  MEMB      86              0.0000000000
     10509        86  QMPE      HN1           -38.6167031002      -21.6192136813       18.6584643150  MEMB      86              0.0000000000
     10510        86  QMPE      HN2           -38.9539807633      -22.5023768076       20.0441845662  MEMB      86              0.0000000000
     10511        86  QMPE      HN3           -39.7101322395      -21.0556088317       19.8392135330  MEMB      86              0.0000000000
     10512        86  QMPE      C12           -37.6734051992      -20.9159430281       20.3976696308  MEMB      86              0.0000000000
     10513        86  QMPE      H12A          -37.9299678527      -20.7239451286       21.4640856276  MEMB      86              0.0000000000
     10514        86  QMPE      H12B          -37.5127759263      -19.9708436543       19.8443875002  MEMB      86              0.0000000000
     10515        86  QMPE      C11           -36.4420469843      -21.8178767270       20.3730697282  MEMB      86              0.0000000000
     10516        86  QMPE      H11A          -36.6429831709      -22.7559575443       20.9307359759  MEMB      86              0.0000000000
     10517        86  QMPE      H11B          -35.6288203330      -21.2798619391       20.9225048798  MEMB      86              0.0000000000
     10518        86  QMPE      P             -34.7974804845      -21.6134758879       18.3370066548  MEMB      86              0.0000000000
     10519        86  QMPE      O13           -34.0685782874      -22.7104385394       17.6500200289  MEMB      86              0.0000000000
     10520        86  QMPE      O14           -34.0455885706      -20.7837602281       19.2792513320  MEMB      86              0.0000000000
     10521        86  QMPE      O11           -35.5216920038      -20.7092330181       17.3009166376  MEMB      86              0.0000000000
     10522        86  QMPE      O12           -36.1023609398      -22.1779055663       19.0409900610  MEMB      86              0.0000000000
     10523        86  QMPE      C1            -36.4290263360      -21.3085626382       16.4066935257  MEMB      86              0.0000000000
     10524        86  QMPE      HA            -37.3592422835      -21.3721882624       16.9862696615  MEMB      86              0.0000000000
     10525        86  QMPE      HB            -36.3115518699      -22.4023208047       16.2034840526  MEMB      86              0.0000000000
     10526        86  QMPE      C2            -36.2987792647      -20.5575104166       15.0307221134  MEMB      86              0.0000000000
     10527        86  QMPE      HS            -36.9783592187      -21.1501021304       14.3759458170  MEMB      86              0.0000000000
     10528        86  QMPE      O21           -34.9986086746      -20.5809341935       14.5279872468  MEMB      86              0.0000000000
     10529        86  QMPE      C21           -34.4558928810      -21.6529490777       14.1408715915  MEMB      86              0.0000000000
     10530        86  QMPE      O22           -34.9827164195      -22.6438009344       13.6522021385  MEMB      86              0.0000000000
     10531        86  QMPE      C22           -32.9890949814      -21.4158127058       14.4831569913  MEMB      86              0.0000000000
     10532        86  QMPE      H2R           -33.0218094196      -21.0783343235       15.5529647744  MEMB      86              0.0000000000
     10533        86  QMPE      H2S           -32.6096449420      -20.5318058088       13.9410205999  MEMB      86              0.0000000000
     10534        86  QMPE      C3            -36.5797784707      -19.0257163195       14.9527941425  MEMB      86              0.0000000000
     10535        86  QMPE      HX            -35.9759865460      -18.3336096937       15.5364266523  MEMB      86              0.0000000000
     10536        86  QMPE      HY            -37.4485055780      -18.8421535687       15.6009827084  MEMB      86              0.0000000000
     10537        86  QMPE      O31           -36.8213062778      -18.5538771031       13.5713840442  MEMB      86              0.0000000000
     10538        86  QMPE      C31           -35.8670242518      -18.1230740614       12.8313845022  MEMB      86              0.0000000000
     10539        86  QMPE      O32           -34.7357299055      -17.9410791331       13.1967555264  MEMB      86              0.0000000000
     10540        86  QMPE      C32           -36.2620833956      -17.9180199072       11.3710803385  MEMB      86              0.0000000000
     10541        86  QMPE      H2X           -37.3381327815      -17.6906883699       11.2272150855  MEMB      86              0.0000000000
     10542        86  QMPE      H2Y           -35.8961905433      -16.9495362712       11.0134433401  MEMB      86              0.0000000000
     10543        86  QMPE      C23           -32.1105105455      -22.6732095001       14.3286550041  MEMB      86              0.0000000000
     10544        86  QMPE      H3R           -32.6295742167      -23.4819074191       14.8845386071  MEMB      86              0.0000000000
     10545        86  QMPE      H3S           -31.1200221654      -22.4605295103       14.7948698091  MEMB      86              0.0000000000
     10546        86  QMPE      C24           -31.7997096628      -23.1982906723       12.9122011655  MEMB      86              0.0000000000
     10547        86  QMPE      H4R           -32.6971586615      -23.2125354538       12.2536984226  MEMB      86              0.0000000000
     10548        86  QMPE      H4S           -31.3568275183      -24.2056003377       12.9898620244  MEMB      86              0.0000000000
     10549        86  QMPE      C25           -30.7533417153      -22.3695639345       12.2166296216  MEMB      86              0.0000000000
     10550        86  QMPE      H5R           -29.8666490853      -22.1743407791       12.8719305896  MEMB      86              0.0000000000
     10551        86  QMPE      H5S           -31.4147258515      -21.4991518597       12.0757899379  MEMB      86              0.0000000000
     10552        86  QMPE      C26           -30.3948774579      -22.7187117672       10.7812525868  MEMB      86              0.0000000000
     10553        86  QMPE      H6R           -29.9539017912      -23.7286523154       10.7431131723  MEMB      86              0.0000000000
     10554        86  QMPE      H6S           -29.6395046809      -21.9866233037       10.4201900061  MEMB      86              0.0000000000
     10555        86  QMPE      C27           -31.6089516687      -22.6378403782        9.8609785592  MEMB      86              0.0000000000
     10556        86  QMPE      H7R           -32.2624772795      -21.7886393287       10.1586027252  MEMB      86              0.0000000000
     10557        86  QMPE      H7S           -32.2300892974      -23.5442678628       10.0291015165  MEMB      86              0.0000000000
     10558        86  QMPE      C28           -31.2263614386      -22.3900046550        8.3891333901  MEMB      86              0.0000000000
     10559        86  QMPE      H8R           -30.7552980240      -21.4046597529        8.3016210052  MEMB      86              0.0000000000
     10560        86  QMPE      H8S           -32.1906349633      -22.3367934765        7.8244572450  MEMB      86              0.0000000000
     10561        86  QMPE      C29           -30.2435750270      -23.4040526173        7.7865198773  MEMB      86              0.0000000000
     10562        86  QMPE      H9R           -30.0577436088      -24.4088216093        8.1965998398  MEMB      86              0.0000000000
     10563        86  QMPE      C217          -28.8812818921      -23.1546557215        7.2269900283  MEMB      86              0.0000000000
     10564        86  QMPE      H17R          -28.5945500494      -22.1664141856        7.4770293367  MEMB      86              0.0000000000
     10565        86  QMPE      H17S          -28.3441818010      -24.1086134869        7.3333182385  MEMB      86              0.0000000000
     10566        86  QMPE      C210          -30.0581297968      -23.2534283168        6.3161616030  MEMB      86              0.0000000000
     10567        86  QMPE      H10R          -30.3151420375      -24.1819199839        5.9177078651  MEMB      86              0.0000000000
     10568        86  QMPE      C211          -30.6386281279      -22.0492971150        5.6178074971  MEMB      86              0.0000000000
     10569        86  QMPE      H11R          -31.7036666354      -21.8058975052        5.8247083634  MEMB      86              0.0000000000
     10570        86  QMPE      H11S          -29.9803142104      -21.1938225770        5.8169046228  MEMB      86              0.0000000000
     10571        86  QMPE      C212          -30.7144636276      -22.4645998541        4.1862728964  MEMB      86              0.0000000000
     10572        86  QMPE      H12R          -31.4300748048      -23.2365526414        3.9570530604  MEMB      86              0.0000000000
     10573        86  QMPE      H12S          -29.7099982995      -22.8882279548        3.9047964567  MEMB      86              0.0000000000
     10574        86  QMPE      C213          -31.6589773558      -21.6445337005        3.3159302110  MEMB      86              0.0000000000
     10575        86  QMPE      H13R          -32.2453468549      -20.7914847710        3.7365245709  MEMB      86              0.0000000000
     10576        86  QMPE      H13S          -31.9689606109      -22.1591033814        2.3765723331  MEMB      86              0.0000000000
     10577        86  QMPE      C214          -30.8750868293      -20.8594821644        2.5473914191  MEMB      86              0.0000000000
     10578        86  QMPE      H14R          -29.9951407266      -21.6116202279        2.4827622290  MEMB      86              0.0000000000
     10579        86  QMPE      H14S          -30.6414554515      -20.0161852443        3.2341930120  MEMB      86              0.0000000000
     10580        86  QMPE      C215          -31.3766661977      -20.4082666055        1.1653720304  MEMB      86              0.0000000000
     10581        86  QMPE      H15R          -30.9820815841      -21.3003131228        0.6336395543  MEMB      86              0.0000000000
     10582        86  QMPE      H15S          -30.4191205966      -20.3577604703        0.6571733196  MEMB      86              0.0000000000
     10583        86  QMPE      C216          -32.0740500889      -18.9119096947        0.7476469334  MEMB      86              0.0000000000
     10584        86  QMPE      H16R          -33.0541285451      -18.8746694147        1.1414763358  MEMB      86              0.0000000000
     10585        86  QMPE      H16S          -32.0476308654      -18.4828720358       -0.3031879500  MEMB      86              0.0000000000
     10586        86  QMPE      H16T          -31.6171083645      -17.9293235178        1.0744010986  MEMB      86              0.0000000000
     10587        86  QMPE      C33           -35.6136581014      -19.1488950703       10.6145452633  MEMB      86              0.0000000000
     10588        86  QMPE      H3X           -34.5382202187      -19.1555956409       10.8706517778  MEMB      86              0.0000000000
     10589        86  QMPE      H3Y           -35.7865836443      -19.0032049431        9.5276078581  MEMB      86              0.0000000000
     10590        86  QMPE      C34           -35.9124051711      -20.6230799179       11.0444228040  MEMB      86              0.0000000000
     10591        86  QMPE      H4X           -36.9006970368      -20.8044956640       10.8611327794  MEMB      86              0.0000000000
     10592        86  QMPE      H4Y           -35.9930002789      -20.8503077979       12.1074778561  MEMB      86              0.0000000000
     10593        86  QMPE      C35           -35.4019913611      -21.8574068329       10.3032467554  MEMB      86              0.0000000000
     10594        86  QMPE      H5X           -36.1617427295      -22.6872244007       10.3612976060  MEMB      86              0.0000000000
     10595        86  QMPE      H5Y           -34.5114744344      -22.1456208693       10.8862484101  MEMB      86              0.0000000000
     10596        86  QMPE      C36           -34.9310767301      -21.6452279469        8.8937240689  MEMB      86              0.0000000000
     10597        86  QMPE      H6X           -34.4090967038      -22.5439692994        8.6117519711  MEMB      86              0.0000000000
     10598        86  QMPE      H6Y           -34.2902237201      -20.7515157343        8.7877680018  MEMB      86              0.0000000000
     10599        86  QMPE      C37           -35.9590022421      -21.5662062592        7.8520173452  MEMB      86              0.0000000000
     10600        86  QMPE      H7X           -36.7956059370      -22.2933376365        8.0301340540  MEMB      86              0.0000000000
     10601        86  QMPE      H7Y           -36.2730939533      -20.4917425321        7.9011797331  MEMB      86              0.0000000000
     10602        86  QMPE      C38           -35.4013664741      -21.6915773192        6.4649754934  MEMB      86              0.0000000000
     10603        86  QMPE      H8X           -36.1306227977      -21.3674425011        5.7691933373  MEMB      86              0.0000000000
     10604        86  QMPE      H8Y           -34.5046681138      -21.0606442634        6.3412042922  MEMB      86              0.0000000000
     10605        86  QMPE      C39           -35.2999548657      -23.0735333350        5.9203031323  MEMB      86              0.0000000000
     10606        86  QMPE      H9X           -36.2223438145      -23.6712023398        6.0796544476  MEMB      86              0.0000000000
     10607        86  QMPE      H9Y           -34.5280600293      -23.4230624526        6.5636427239  MEMB      86              0.0000000000
     10608        86  QMPE      C310          -34.8864337594      -23.0571473581        4.4599029117  MEMB      86              0.0000000000
     10609        86  QMPE      H10X          -34.7951985461      -24.0417178685        4.0178545286  MEMB      86              0.0000000000
     10610        86  QMPE      H10Y          -33.9615951671      -22.4806135296        4.2716129307  MEMB      86              0.0000000000
     10611        86  QMPE      C311          -36.0201560436      -22.8971850421        3.5305323246  MEMB      86              0.0000000000
     10612        86  QMPE      H11X          -36.3253834546      -21.8893413661        3.7965859839  MEMB      86              0.0000000000
     10613        86  QMPE      H11Y          -36.8019681171      -23.6736818468        3.7587133808  MEMB      86              0.0000000000
     10614        86  QMPE      C312          -35.6887812340      -22.8949341229        2.0614557398  MEMB      86              0.0000000000
     10615        86  QMPE      H12X          -36.6582969729      -22.7167614240        1.5514562528  MEMB      86              0.0000000000
     10616        86  QMPE      H12Y          -35.3119002664      -23.8750150512        1.7307399936  MEMB      86              0.0000000000
     10617        86  QMPE      C313          -34.7032808251      -21.7800700919        1.7373922266  MEMB      86              0.0000000000
     10618        86  QMPE      H13X          -34.8922935660      -20.9229273383        2.4373439300  MEMB      86              0.0000000000
     10619        86  QMPE      H13Y          -33.6788600502      -22.1106298743        1.8448518552  MEMB      86              0.0000000000
     10620        86  QMPE      C314          -34.8435104792      -21.2209179667        0.3400461916  MEMB      86              0.0000000000
     10621        86  QMPE      H14X          -34.0346706783      -20.5177565354        0.0742466430  MEMB      86              0.0000000000
     10622        86  QMPE      H14Y          -35.7022781055      -20.6222230224        0.5834648138  MEMB      86              0.0000000000
     10623        86  QMPE      C315          -35.0726962471      -22.1796760956       -0.8153901252  MEMB      86              0.0000000000
     10624        86  QMPE      H15X          -34.1337248720      -22.7600880224       -0.9281077398  MEMB      86              0.0000000000
     10625        86  QMPE      H15Y          -35.9096198216      -22.8910240610       -0.6442325207  MEMB      86              0.0000000000
     10626        86  QMPE      H15Z          -35.2566212888      -21.6526113651       -1.7760164891  MEMB      86              0.0000000000
     10627        87  PMPE      N             -27.5089656720      -29.8430938219       20.2902770824  MEMB      87              0.0000000000
     10628        87  PMPE      HN1           -28.4028005108      -30.0509203532       20.7543587125  MEMB      87              0.0000000000
     10629        87  PMPE      HN2           -27.1078269035      -28.9879623115       20.7348735092  MEMB      87              0.0000000000
     10630        87  PMPE      HN3           -27.7007097651      -29.6493454449       19.2860631659  MEMB      87              0.0000000000
     10631        87  PMPE      C12           -26.6596899867      -31.0851224473       20.4472801885  MEMB      87              0.0000000000
     10632        87  PMPE      H12A          -26.1701573342      -31.0127838355       21.4393471081  MEMB      87              0.0000000000
     10633        87  PMPE      H12B          -25.8896931154      -31.1112568269       19.6493531760  MEMB      87              0.0000000000
     10634        87  PMPE      C11           -27.5294403317      -32.3593988166       20.4298190066  MEMB      87              0.0000000000
     10635        87  PMPE      H11A          -28.3337635579      -32.2373075047       21.1806435959  MEMB      87              0.0000000000
     10636        87  PMPE      H11B          -26.9339754716      -33.2483737411       20.7634697583  MEMB      87              0.0000000000
     10637        87  PMPE      P             -27.3858541468      -33.6148181654       18.1767826244  MEMB      87              0.0000000000
     10638        87  PMPE      O13           -27.7338137841      -34.9740277724       18.6192522045  MEMB      87              0.0000000000
     10639        87  PMPE      O14           -25.9668773131      -33.1948646298       18.1736680349  MEMB      87              0.0000000000
     10640        87  PMPE      O11           -28.0724252157      -33.2740801529       16.8062205634  MEMB      87              0.0000000000
     10641        87  PMPE      O12           -28.1384540299      -32.5727665844       19.1579179286  MEMB      87              0.0000000000
     10642        87  PMPE      C1            -29.4973359585      -33.1320317959       16.7247777457  MEMB      87              0.0000000000
     10643        87  PMPE      HA            -29.8266258531      -32.1582557017       17.1327124848  MEMB      87              0.0000000000
     10644        87  PMPE      HB            -30.0349097978      -33.9633876386       17.2500433148  MEMB      87              0.0000000000
     10645        87  PMPE      C2            -29.9335575829      -33.0981992155       15.2473460877  MEMB      87              0.0000000000
     10646        87  PMPE      HS            -31.0650120281      -33.3732071925       15.2375269810  MEMB      87              0.0000000000
     10647        87  PMPE      O21           -29.0814497089      -33.7684212499       14.3809386525  MEMB      87              0.0000000000
     10648        87  PMPE      C21           -29.3891720188      -34.8645754421       14.5041254267  MEMB      87              0.0000000000
     10649        87  PMPE      O22           -30.3158388816      -35.2873990441       15.1438163103  MEMB      87              0.0000000000
     10650        87  PMPE      C22           -28.4543940185      -35.4404938482       13.5817007925  MEMB      87              0.0000000000
     10651        87  PMPE      H2R           -27.9712510956      -36.2043452156       14.1260452361  MEMB      87              0.0000000000
     10652        87  PMPE      H2S           -27.4055806666      -35.1951835855       13.7441274245  MEMB      87              0.0000000000
     10653        87  PMPE      C3            -29.9308010668      -31.8491341330       14.5871336803  MEMB      87              0.0000000000
     10654        87  PMPE      HX            -28.9444794781      -31.3930158419       14.4323454153  MEMB      87              0.0000000000
     10655        87  PMPE      HY            -30.3610385226      -31.3287526401       15.3726645624  MEMB      87              0.0000000000
     10656        87  PMPE      O31           -30.6950534378      -31.9970584828       13.4055737931  MEMB      87              0.0000000000
     10657        87  PMPE      C31           -29.8859492879      -32.3373944834       12.3980209083  MEMB      87              0.0000000000
     10658        87  PMPE      O32           -28.6714492131      -32.3434953674       12.3599065892  MEMB      87              0.0000000000
     10659        87  PMPE      C32           -30.6952092883      -32.4166538686       11.2598300962  MEMB      87              0.0000000000
     10660        87  PMPE      H2X           -31.8276095463      -32.3861831976       11.4033947596  MEMB      87              0.0000000000
     10661        87  PMPE      H2Y           -30.2943599235      -32.9604945099       10.4100055400  MEMB      87              0.0000000000
     10662        87  PMPE      C23           -28.9482173122      -35.5493283353       12.0967081898  MEMB      87              0.0000000000
     10663        87  PMPE      H3R           -29.7137003147      -34.7919660114       11.9505265002  MEMB      87              0.0000000000
     10664        87  PMPE      H3S           -29.6204121580      -36.4059355752       11.8306766028  MEMB      87              0.0000000000
     10665        87  PMPE      C24           -27.6514265192      -35.5102646445       11.2260419532  MEMB      87              0.0000000000
     10666        87  PMPE      H4R           -26.8445335509      -36.2711930343       11.3352736390  MEMB      87              0.0000000000
     10667        87  PMPE      H4S           -27.1038884233      -34.6468177507       11.6203043984  MEMB      87              0.0000000000
     10668        87  PMPE      C25           -27.8231085057      -35.7858038953        9.7532539300  MEMB      87              0.0000000000
     10669        87  PMPE      H5R           -28.7259928917      -35.2185524674        9.5503319534  MEMB      87              0.0000000000
     10670        87  PMPE      H5S           -27.9886649907      -36.8627431279        9.4823104951  MEMB      87              0.0000000000
     10671        87  PMPE      C26           -26.5934836784      -35.3466591507        8.9644019604  MEMB      87              0.0000000000
     10672        87  PMPE      H6R           -25.8091276906      -36.1167509847        9.0988608913  MEMB      87              0.0000000000
     10673        87  PMPE      H6S           -26.2745274296      -34.3412347060        9.3241522682  MEMB      87              0.0000000000
     10674        87  PMPE      C27           -26.9228250096      -35.2637587920        7.4955124985  MEMB      87              0.0000000000
     10675        87  PMPE      H7R           -27.9095462468      -34.8227155222        7.6344463462  MEMB      87              0.0000000000
     10676        87  PMPE      H7S           -27.0409940268      -36.2683618977        7.0382816636  MEMB      87              0.0000000000
     10677        87  PMPE      C28           -26.0946185555      -34.3124557077        6.6303403950  MEMB      87              0.0000000000
     10678        87  PMPE      H8R           -26.1065662460      -33.2812896135        7.0492877284  MEMB      87              0.0000000000
     10679        87  PMPE      H8S           -26.5374940751      -34.2758292177        5.6118555913  MEMB      87              0.0000000000
     10680        87  PMPE      C29           -24.7083582307      -34.8531180816        6.4470778099  MEMB      87              0.0000000000
     10681        87  PMPE      H9R           -24.5565779389      -35.9072866536        6.1801938618  MEMB      87              0.0000000000
     10682        87  PMPE      C217          -23.6314952845      -34.2567157546        7.3125909193  MEMB      87              0.0000000000
     10683        87  PMPE      H17R          -22.9108873313      -35.0111267886        7.6086018443  MEMB      87              0.0000000000
     10684        87  PMPE      H17S          -24.0236371610      -33.4859498975        7.9605002919  MEMB      87              0.0000000000
     10685        87  PMPE      C210          -23.6866248196      -33.9917775799        5.8017435544  MEMB      87              0.0000000000
     10686        87  PMPE      H10R          -22.9980310411      -34.6003336994        5.1928860172  MEMB      87              0.0000000000
     10687        87  PMPE      C211          -23.9102384544      -32.5487243730        5.3459692458  MEMB      87              0.0000000000
     10688        87  PMPE      H11R          -22.9176436398      -32.1524852299        5.0325663863  MEMB      87              0.0000000000
     10689        87  PMPE      H11S          -24.2920583074      -31.8978198893        6.1638009289  MEMB      87              0.0000000000
     10690        87  PMPE      C212          -24.5310016141      -32.2784308621        4.0058634108  MEMB      87              0.0000000000
     10691        87  PMPE      H12R          -24.3391217831      -31.1855219743        3.8310840920  MEMB      87              0.0000000000
     10692        87  PMPE      H12S          -25.6141286692      -32.4551206482        4.0827122869  MEMB      87              0.0000000000
     10693        87  PMPE      C213          -23.9084164454      -33.1014092590        2.8820662179  MEMB      87              0.0000000000
     10694        87  PMPE      H13R          -23.9170315901      -34.1897718400        3.0934505928  MEMB      87              0.0000000000
     10695        87  PMPE      H13S          -22.8605432719      -32.8801636768        2.6639721107  MEMB      87              0.0000000000
     10696        87  PMPE      C214          -24.6625133930      -32.8601142424        1.6055294136  MEMB      87              0.0000000000
     10697        87  PMPE      H14R          -24.6878666344      -31.7755626558        1.3466643796  MEMB      87              0.0000000000
     10698        87  PMPE      H14S          -25.7070051034      -33.2130980534        1.7487479925  MEMB      87              0.0000000000
     10699        87  PMPE      C215          -24.0179544322      -33.6534611054        0.4922014704  MEMB      87              0.0000000000
     10700        87  PMPE      H15R          -23.9898763855      -34.6838899041        0.7197646374  MEMB      87              0.0000000000
     10701        87  PMPE      H15S          -22.9606146214      -33.3149992302        0.3359134616  MEMB      87              0.0000000000
     10702        87  PMPE      C216          -24.8522105132      -33.5902591539       -0.7424304447  MEMB      87              0.0000000000
     10703        87  PMPE      H16R          -25.9271653344      -33.7611358010       -0.8130979110  MEMB      87              0.0000000000
     10704        87  PMPE      H16S          -24.8919310530      -32.5068467813       -0.6133301843  MEMB      87              0.0000000000
     10705        87  PMPE      H16T          -24.2940692885      -33.9140656785       -1.6542652209  MEMB      87              0.0000000000
     10706        87  PMPE      C33           -30.3473059504      -31.1376640972       11.1834272165  MEMB      87              0.0000000000
     10707        87  PMPE      H3X           -31.1763548446      -30.4794249902       11.6190994767  MEMB      87              0.0000000000
     10708        87  PMPE      H3Y           -31.4554604091      -30.7117768597       11.0807685371  MEMB      87              0.0000000000
     10709        87  PMPE      C34           -28.8570986719      -30.7396276896       10.2075155239  MEMB      87              0.0000000000
     10710        87  PMPE      H4X           -28.2048966979      -30.6039029840       11.0216573046  MEMB      87              0.0000000000
     10711        87  PMPE      H4Y           -28.7295254156      -29.7578523920        9.5977327927  MEMB      87              0.0000000000
     10712        87  PMPE      C35           -28.2627528833      -31.0911625498        8.7791003955  MEMB      87              0.0000000000
     10713        87  PMPE      H5X           -28.5102189082      -32.1400483142        8.9337962936  MEMB      87              0.0000000000
     10714        87  PMPE      H5Y           -27.1810557126      -30.8801382434        8.8570705450  MEMB      87              0.0000000000
     10715        87  PMPE      C36           -28.4271031112      -30.3521595179        7.3272339492  MEMB      87              0.0000000000
     10716        87  PMPE      H6X           -28.9415878479      -29.3978703820        7.1429573760  MEMB      87              0.0000000000
     10717        87  PMPE      H6Y           -29.4246551140      -30.3721383242        6.9530023172  MEMB      87              0.0000000000
     10718        87  PMPE      C37           -27.6795842878      -31.1792484746        6.1741956463  MEMB      87              0.0000000000
     10719        87  PMPE      H7X           -27.6728108737      -32.2993359968        6.2855493063  MEMB      87              0.0000000000
     10720        87  PMPE      H7Y           -26.6596391755      -30.9481155165        6.4411021103  MEMB      87              0.0000000000
     10721        87  PMPE      C38           -28.2622920784      -31.1723708543        4.6958634867  MEMB      87              0.0000000000
     10722        87  PMPE      H8X           -27.3656576293      -31.1761644594        4.0607412148  MEMB      87              0.0000000000
     10723        87  PMPE      H8Y           -28.8712376887      -30.2569760958        4.5510919651  MEMB      87              0.0000000000
     10724        87  PMPE      C39           -29.0341451023      -32.4204988818        4.0570753488  MEMB      87              0.0000000000
     10725        87  PMPE      H9X           -30.0906207545      -32.5930519369        4.2265160991  MEMB      87              0.0000000000
     10726        87  PMPE      H9Y           -28.7617848936      -33.3969710758        4.4784868703  MEMB      87              0.0000000000
     10727        87  PMPE      C310          -29.0735296687      -32.2462398290        2.5823848787  MEMB      87              0.0000000000
     10728        87  PMPE      H10X          -28.0619133427      -32.6132185913        2.3042395762  MEMB      87              0.0000000000
     10729        87  PMPE      H10Y          -29.2682597645      -31.1729215385        2.3836385908  MEMB      87              0.0000000000
     10730        87  PMPE      C311          -30.1187588245      -32.9697733586        1.7625703843  MEMB      87              0.0000000000
     10731        87  PMPE      H11X          -31.1857427321      -32.7952994386        1.8588705031  MEMB      87              0.0000000000
     10732        87  PMPE      H11Y          -30.0639097657      -33.9304114354        2.1665741282  MEMB      87              0.0000000000
     10733        87  PMPE      C312          -29.7326109460      -33.1481906100        0.3119491888  MEMB      87              0.0000000000
     10734        87  PMPE      H12X          -30.5848245435      -33.5374958147       -0.2903397563  MEMB      87              0.0000000000
     10735        87  PMPE      H12Y          -28.8970518638      -33.8875449645        0.2874160273  MEMB      87              0.0000000000
     10736        87  PMPE      C313          -29.2219487256      -31.8959186811       -0.2517492876  MEMB      87              0.0000000000
     10737        87  PMPE      H13X          -28.8161066575      -32.1229289761       -1.2608699351  MEMB      87              0.0000000000
     10738        87  PMPE      H13Y          -28.3768277137      -31.6340838971        0.4130041771  MEMB      87              0.0000000000
     10739        87  PMPE      C314          -30.3413186933      -30.8714597780       -0.2886831197  MEMB      87              0.0000000000
     10740        87  PMPE      H14X          -30.5298786693      -30.3906498128        0.6944553189  MEMB      87              0.0000000000
     10741        87  PMPE      H14Y          -31.2616256754      -31.3328177171       -0.7083264694  MEMB      87              0.0000000000
     10742        87  PMPE      C315          -30.0401743858      -29.8191844966       -1.2692337966  MEMB      87              0.0000000000
     10743        87  PMPE      H15X          -30.8091414801      -29.0432397364       -1.3964451446  MEMB      87              0.0000000000
     10744        87  PMPE      H15Y          -29.8565286153      -30.3884388829       -2.2360085771  MEMB      87              0.0000000000
     10745        87  PMPE      C316          -28.8113160759      -29.1058163041       -0.9372198002  MEMB      87              0.0000000000
     10746        87  PMPE      H16X          -28.5270749330      -28.1157731126       -1.2808449266  MEMB      87              0.0000000000
     10747        87  PMPE      H16Y          -28.2146812943      -29.6452375267       -1.6615242855  MEMB      87              0.0000000000
     10748        87  PMPE      H16Z          -28.3783757221      -29.1806254381        0.0755249402  MEMB      87              0.0000000000
     10749        88  PMPE      N              29.3296851538       31.2139253126       18.0397732265  MEMB      88              0.0000000000
     10750        88  PMPE      HN1            28.6216927394       31.8962604416       17.6770574179  MEMB      88              0.0000000000
     10751        88  PMPE      HN2            29.9590425917       31.7433058753       18.6896287292  MEMB      88              0.0000000000
     10752        88  PMPE      HN3            29.8347303426       30.7555836497       17.2618853000  MEMB      88              0.0000000000
     10753        88  PMPE      C12            28.6103926490       30.1424812364       18.8089600312  MEMB      88              0.0000000000
     10754        88  PMPE      H12A           29.3872761995       29.5075424851       19.2840230303  MEMB      88              0.0000000000
     10755        88  PMPE      H12B           28.0518199565       29.5126126195       18.0897121168  MEMB      88              0.0000000000
     10756        88  PMPE      C11            27.6558983164       30.7261456209       19.8725267932  MEMB      88              0.0000000000
     10757        88  PMPE      H11A           28.2631810332       31.2806521727       20.6261762773  MEMB      88              0.0000000000
     10758        88  PMPE      H11B           27.1846295373       29.8521401619       20.3853549661  MEMB      88              0.0000000000
     10759        88  PMPE      P              26.7387283550       33.0909995657       19.1278849908  MEMB      88              0.0000000000
     10760        88  PMPE      O13            28.0328146731       33.5521683809       19.6486274261  MEMB      88              0.0000000000
     10761        88  PMPE      O14            25.4869466244       33.7068737299       19.5967898606  MEMB      88              0.0000000000
     10762        88  PMPE      O11            26.9404904387       33.0529063580       17.5441951572  MEMB      88              0.0000000000
     10763        88  PMPE      O12            26.6087310565       31.5318858121       19.3346950779  MEMB      88              0.0000000000
     10764        88  PMPE      C1             25.9326941961       32.4239443793       16.7875285250  MEMB      88              0.0000000000
     10765        88  PMPE      HA             25.0819537809       32.9530387766       17.1001708093  MEMB      88              0.0000000000
     10766        88  PMPE      HB             25.8071235730       31.3351131659       16.9995525008  MEMB      88              0.0000000000
     10767        88  PMPE      C2             25.9552277969       32.6840067785       15.2602404896  MEMB      88              0.0000000000
     10768        88  PMPE      HS             25.1995882865       31.9817987547       14.7992712224  MEMB      88              0.0000000000
     10769        88  PMPE      O21            27.1700756738       32.6272993300       14.6354430352  MEMB      88              0.0000000000
     10770        88  PMPE      C21            27.7679980463       31.6285224820       14.9080579185  MEMB      88              0.0000000000
     10771        88  PMPE      O22            27.3803653646       30.5677434818       15.3939414311  MEMB      88              0.0000000000
     10772        88  PMPE      C22            29.1302314474       32.0294182363       14.6136134548  MEMB      88              0.0000000000
     10773        88  PMPE      H2R            29.6473966388       32.4340789934       15.5047632105  MEMB      88              0.0000000000
     10774        88  PMPE      H2S            29.2341595715       32.7989552441       13.8105916834  MEMB      88              0.0000000000
     10775        88  PMPE      C3             25.5593330466       33.9926609480       14.7933739243  MEMB      88              0.0000000000
     10776        88  PMPE      HX             25.8247431681       34.8446028478       15.4806104583  MEMB      88              0.0000000000
     10777        88  PMPE      HY             24.5480545913       33.7289969248       14.7630845228  MEMB      88              0.0000000000
     10778        88  PMPE      O31            25.8175788222       34.2382628084       13.4260493580  MEMB      88              0.0000000000
     10779        88  PMPE      C31            24.9799390177       33.8003344640       12.5201878981  MEMB      88              0.0000000000
     10780        88  PMPE      O32            23.8922386525       33.2758334906       12.6593313395  MEMB      88              0.0000000000
     10781        88  PMPE      C32            25.6825987334       34.1152565920       11.2372415759  MEMB      88              0.0000000000
     10782        88  PMPE      H2X            25.2717060376       33.3574995692       10.5416211754  MEMB      88              0.0000000000
     10783        88  PMPE      H2Y            26.7553073713       34.1055110067       11.4313088066  MEMB      88              0.0000000000
     10784        88  PMPE      C23            29.6443994021       30.7018974480       14.2333294897  MEMB      88              0.0000000000
     10785        88  PMPE      H3R            29.6387201526       29.9121599392       15.0187364709  MEMB      88              0.0000000000
     10786        88  PMPE      H3S            30.6474474368       31.1326357460       14.2325967380  MEMB      88              0.0000000000
     10787        88  PMPE      C24            29.2317812517       30.1355976690       12.8579058824  MEMB      88              0.0000000000
     10788        88  PMPE      H4R            28.2775637065       29.6062173400       12.8172623579  MEMB      88              0.0000000000
     10789        88  PMPE      H4S            29.9146250900       29.2651772328       12.7185285132  MEMB      88              0.0000000000
     10790        88  PMPE      C25            29.2670828656       31.2203312648       11.7383336719  MEMB      88              0.0000000000
     10791        88  PMPE      H5R            30.1215735358       31.9364063611       11.8009628585  MEMB      88              0.0000000000
     10792        88  PMPE      H5S            28.4976444947       31.9767865514       11.8976520242  MEMB      88              0.0000000000
     10793        88  PMPE      C26            29.2246796299       30.6711753105       10.3122129748  MEMB      88              0.0000000000
     10794        88  PMPE      H6R            29.9289096286       29.8237222679       10.0755552062  MEMB      88              0.0000000000
     10795        88  PMPE      H6S            29.4926768645       31.5294284776        9.6373773499  MEMB      88              0.0000000000
     10796        88  PMPE      C27            27.9733079991       30.0520268430        9.9153326006  MEMB      88              0.0000000000
     10797        88  PMPE      H7R            27.2027618820       30.7287166471       10.3125795017  MEMB      88              0.0000000000
     10798        88  PMPE      H7S            27.9604582031       29.0244882172       10.3567330957  MEMB      88              0.0000000000
     10799        88  PMPE      C28            27.9364898385       30.0258484892        8.4217220163  MEMB      88              0.0000000000
     10800        88  PMPE      H8R            28.4883959378       30.8694707659        7.9308108760  MEMB      88              0.0000000000
     10801        88  PMPE      H8S            26.8955081775       29.9387066692        8.0937164263  MEMB      88              0.0000000000
     10802        88  PMPE      C29            28.5214981022       28.7965883239        7.9543895883  MEMB      88              0.0000000000
     10803        88  PMPE      H9R            28.2451464901       27.8008794055        8.3618639599  MEMB      88              0.0000000000
     10804        88  PMPE      C217           29.9306098329       28.9469940359        7.5188377543  MEMB      88              0.0000000000
     10805        88  PMPE      H17R           30.4889920980       28.0751365342        7.7351246111  MEMB      88              0.0000000000
     10806        88  PMPE      H17S           30.4460536961       29.8564144693        7.4054658064  MEMB      88              0.0000000000
     10807        88  PMPE      C210           28.7563342515       28.8566226986        6.4952274945  MEMB      88              0.0000000000
     10808        88  PMPE      H10R           28.2619092095       27.9942114364        6.0474083102  MEMB      88              0.0000000000
     10809        88  PMPE      C211           28.4172604958       29.9098866932        5.5038196950  MEMB      88              0.0000000000
     10810        88  PMPE      H11R           28.8970115931       29.6532524629        4.5199832186  MEMB      88              0.0000000000
     10811        88  PMPE      H11S           28.7874136637       30.8816810944        5.8323531026  MEMB      88              0.0000000000
     10812        88  PMPE      C212           26.9231996501       29.7108915898        5.2443690197  MEMB      88              0.0000000000
     10813        88  PMPE      H12R           26.3337426475       30.0112393197        6.1226176523  MEMB      88              0.0000000000
     10814        88  PMPE      H12S           26.6693098598       28.6249366452        5.0709276196  MEMB      88              0.0000000000
     10815        88  PMPE      C213           26.5237652297       30.4031719851        3.9642225239  MEMB      88              0.0000000000
     10816        88  PMPE      H13R           25.6885298010       29.7903786220        3.5611196727  MEMB      88              0.0000000000
     10817        88  PMPE      H13S           27.4007815362       30.3525364339        3.2768175786  MEMB      88              0.0000000000
     10818        88  PMPE      C214           26.1348772065       31.8710969502        4.0946952143  MEMB      88              0.0000000000
     10819        88  PMPE      H14R           27.0624747504       32.4015656177        4.4109367757  MEMB      88              0.0000000000
     10820        88  PMPE      H14S           25.3451554079       31.9728153308        4.8637332775  MEMB      88              0.0000000000
     10821        88  PMPE      C215           25.6210199058       32.5733601930        2.8266825642  MEMB      88              0.0000000000
     10822        88  PMPE      H15R           26.4341811587       32.5170633593        2.0543601310  MEMB      88              0.0000000000
     10823        88  PMPE      H15S           25.4807479704       33.6435484981        3.0801208833  MEMB      88              0.0000000000
     10824        88  PMPE      C216           24.2396682082       32.1377793837        2.3068079316  MEMB      88              0.0000000000
     10825        88  PMPE      H16R           23.3801219299       32.0900835125        2.9633181288  MEMB      88              0.0000000000
     10826        88  PMPE      H16S           24.0733202468       32.5125095043        1.2600666506  MEMB      88              0.0000000000
     10827        88  PMPE      H16T           24.1491309966       31.0437620617        2.3183833230  MEMB      88              0.0000000000
     10828        88  PMPE      C33            25.4517654467       35.4888714194       10.6919994373  MEMB      88              0.0000000000
     10829        88  PMPE      H3X            25.5466168070       36.3607020418       11.3772859729  MEMB      88              0.0000000000
     10830        88  PMPE      H3Y            24.4136567609       35.2198373543       10.4023492816  MEMB      88              0.0000000000
     10831        88  PMPE      C34            26.3337511592       36.2317533671        9.7772458800  MEMB      88              0.0000000000
     10832        88  PMPE      H4X            27.2257480539       36.5471823155       10.3647701653  MEMB      88              0.0000000000
     10833        88  PMPE      H4Y            25.8406987315       37.1824498484        9.4797384172  MEMB      88              0.0000000000
     10834        88  PMPE      C35            26.5512113985       35.3752797710        8.6192951078  MEMB      88              0.0000000000
     10835        88  PMPE      H5X            25.5917693550       35.1837223581        8.0883594004  MEMB      88              0.0000000000
     10836        88  PMPE      H5Y            26.9422469058       34.4132406363        9.0155379030  MEMB      88              0.0000000000
     10837        88  PMPE      C36            27.5584897675       36.0686398153        7.7943192795  MEMB      88              0.0000000000
     10838        88  PMPE      H6X            28.3802597287       36.4008795316        8.4627498832  MEMB      88              0.0000000000
     10839        88  PMPE      H6Y            27.2443974586       37.0102926391        7.3234084500  MEMB      88              0.0000000000
     10840        88  PMPE      C37            27.9410589666       35.1436920811        6.6953501304  MEMB      88              0.0000000000
     10841        88  PMPE      H7X            27.1884950038       34.9387570388        5.9224348957  MEMB      88              0.0000000000
     10842        88  PMPE      H7Y            28.4091386655       34.2064211084        7.0983658661  MEMB      88              0.0000000000
     10843        88  PMPE      C38            28.9618910454       35.8429087227        5.9501978593  MEMB      88              0.0000000000
     10844        88  PMPE      H8X            29.6445163989       35.6236770498        6.7587046227  MEMB      88              0.0000000000
     10845        88  PMPE      H8Y            28.8531979821       36.9524662063        5.8234474195  MEMB      88              0.0000000000
     10846        88  PMPE      C39            29.3163430259       35.1546322322        4.7039507462  MEMB      88              0.0000000000
     10847        88  PMPE      H9X            30.1174197837       35.5407733997        4.1452470142  MEMB      88              0.0000000000
     10848        88  PMPE      H9Y            28.5394992164       35.5284259316        4.0256030840  MEMB      88              0.0000000000
     10849        88  PMPE      C310           29.8938900351       33.7525124275        4.7645830159  MEMB      88              0.0000000000
     10850        88  PMPE      H10X           28.9975184052       33.1276726194        4.9432643819  MEMB      88              0.0000000000
     10851        88  PMPE      H10Y           30.8011066677       33.5121060718        5.3556527552  MEMB      88              0.0000000000
     10852        88  PMPE      C311           30.3706617613       33.3766632888        3.4152597252  MEMB      88              0.0000000000
     10853        88  PMPE      H11X           31.1905735053       33.9275348244        2.8835383141  MEMB      88              0.0000000000
     10854        88  PMPE      H11Y           29.3811700797       33.6252718265        3.0793602449  MEMB      88              0.0000000000
     10855        88  PMPE      C312           30.3799202692       31.9262652318        3.2026966015  MEMB      88              0.0000000000
     10856        88  PMPE      H12X           29.5726809486       31.3154395514        3.5568078978  MEMB      88              0.0000000000
     10857        88  PMPE      H12Y           31.2846480864       31.8683491999        3.7863752072  MEMB      88              0.0000000000
     10858        88  PMPE      C313           30.4535994667       31.4650851897        1.8130616257  MEMB      88              0.0000000000
     10859        88  PMPE      H13X           31.0052916497       30.5355327584        1.7774868580  MEMB      88              0.0000000000
     10860        88  PMPE      H13Y           31.1354046144       32.2717103333        1.4368944563  MEMB      88              0.0000000000
     10861        88  PMPE      C314           29.2574507721       30.9381835160        0.8804867382  MEMB      88              0.0000000000
     10862        88  PMPE      H14X           28.6431770827       31.7562661638        0.6950194210  MEMB      88              0.0000000000
     10863        88  PMPE      H14Y           28.5114190079       30.5498129583        1.5631401728  MEMB      88              0.0000000000
     10864        88  PMPE      C315           29.2436198786       30.4043783153       -0.6867930379  MEMB      88              0.0000000000
     10865        88  PMPE      H15X           28.2727374596       30.4735687634       -1.0349890337  MEMB      88              0.0000000000
     10866        88  PMPE      H15Y           29.8348674468       29.6049090983       -0.9633884605  MEMB      88              0.0000000000
     10867        88  PMPE      C316           29.4775794227       30.9216307485       -2.1084220280  MEMB      88              0.0000000000
     10868        88  PMPE      H16X           30.5571883609       30.9665901229       -2.3122422765  MEMB      88              0.0000000000
     10869        88  PMPE      H16Y           28.8724099674       31.8692584455       -2.1647250330  MEMB      88              0.0000000000
     10870        88  PMPE      H16Z           29.2836460448       30.6027508866       -3.1127857062  MEMB      88              0.0000000000
     10871        89  PMPE      N              26.8789631158      -31.7458068313       19.8127808505  MEMB      89              0.0000000000
     10872        89  PMPE      HN1            25.9952137752      -32.0527174387       20.2679450753  MEMB      89              0.0000000000
     10873        89  PMPE      HN2            27.1560783338      -30.8106896151       20.1808005364  MEMB      89              0.0000000000
     10874        89  PMPE      HN3            26.7749835304      -31.6842730679       18.7788770200  MEMB      89              0.0000000000
     10875        89  PMPE      C12            27.9714370011      -32.7345629758       20.0803649308  MEMB      89              0.0000000000
     10876        89  PMPE      H12A           27.5021419717      -33.7370550352       19.9934574578  MEMB      89              0.0000000000
     10877        89  PMPE      H12B           28.3321924749      -32.5920022089       21.1190124084  MEMB      89              0.0000000000
     10878        89  PMPE      C11            29.0748055648      -32.6752506899       19.0054232665  MEMB      89              0.0000000000
     10879        89  PMPE      H11A           28.6409989339      -32.7323242132       17.9811822729  MEMB      89              0.0000000000
     10880        89  PMPE      H11B           29.6766022645      -33.6003721700       19.1828620802  MEMB      89              0.0000000000
     10881        89  PMPE      P              31.4354560186      -31.6299716983       18.6494423763  MEMB      89              0.0000000000
     10882        89  PMPE      O13            32.1221486503      -32.6436002193       19.4565090246  MEMB      89              0.0000000000
     10883        89  PMPE      O14            32.0320736953      -30.2941153433       18.8034728697  MEMB      89              0.0000000000
     10884        89  PMPE      O11            31.4001801131      -31.9954253401       17.1141256105  MEMB      89              0.0000000000
     10885        89  PMPE      O12            29.8876792215      -31.5092333744       19.0965561502  MEMB      89              0.0000000000
     10886        89  PMPE      C1             30.9413198972      -30.9804441676       16.2152645934  MEMB      89              0.0000000000
     10887        89  PMPE      HA             31.4705294500      -30.0142353530       16.3856510894  MEMB      89              0.0000000000
     10888        89  PMPE      HB             29.8531288552      -30.8284295345       16.3297738909  MEMB      89              0.0000000000
     10889        89  PMPE      C2             31.1607881118      -31.2793300449       14.7165718800  MEMB      89              0.0000000000
     10890        89  PMPE      HS             30.9910747333      -30.3867885064       14.0910770484  MEMB      89              0.0000000000
     10891        89  PMPE      O21            30.3825892209      -32.3880963312       14.2697004229  MEMB      89              0.0000000000
     10892        89  PMPE      C21            29.1717178386      -31.9211587772       13.9829915790  MEMB      89              0.0000000000
     10893        89  PMPE      O22            28.7902391694      -30.7789374244       14.0815673569  MEMB      89              0.0000000000
     10894        89  PMPE      C22            28.3062490188      -33.0181443978       13.5942264724  MEMB      89              0.0000000000
     10895        89  PMPE      H2R            27.2176365300      -32.8100286662       13.5599853138  MEMB      89              0.0000000000
     10896        89  PMPE      H2S            28.6746687473      -33.7182004531       14.3524247733  MEMB      89              0.0000000000
     10897        89  PMPE      C3             32.5973489473      -31.5107098422       14.4014423197  MEMB      89              0.0000000000
     10898        89  PMPE      HX             32.8670963772      -32.5308696988       14.7985810982  MEMB      89              0.0000000000
     10899        89  PMPE      HY             33.1626271232      -30.8713520896       15.0770592653  MEMB      89              0.0000000000
     10900        89  PMPE      O31            32.8727143600      -30.9360341283       13.0414363736  MEMB      89              0.0000000000
     10901        89  PMPE      C31            33.2455802587      -31.8219591590       12.1130955191  MEMB      89              0.0000000000
     10902        89  PMPE      O32            33.2781844412      -32.9170690712       12.3147750403  MEMB      89              0.0000000000
     10903        89  PMPE      C32            33.8181377871      -31.7900772507       10.7067860453  MEMB      89              0.0000000000
     10904        89  PMPE      H2X            34.8449257537      -31.5320325772       11.0164364122  MEMB      89              0.0000000000
     10905        89  PMPE      H2Y            32.9080066196      -31.3173721331       10.3262429105  MEMB      89              0.0000000000
     10906        89  PMPE      C23            28.5784205835      -33.5592460969       12.2651163891  MEMB      89              0.0000000000
     10907        89  PMPE      H3R            27.7719108015      -34.2892684920       11.9930652837  MEMB      89              0.0000000000
     10908        89  PMPE      H3S            29.5515610587      -34.0930441184       12.3298845235  MEMB      89              0.0000000000
     10909        89  PMPE      C24            28.6708111244      -32.3411518534       11.3606657931  MEMB      89              0.0000000000
     10910        89  PMPE      H4R            29.5740330268      -31.7115085549       11.4890725238  MEMB      89              0.0000000000
     10911        89  PMPE      H4S            27.6451189854      -31.9624034702       11.1245445538  MEMB      89              0.0000000000
     10912        89  PMPE      C25            29.0724503960      -32.7545800799       10.0670855074  MEMB      89              0.0000000000
     10913        89  PMPE      H5R            28.0738125331      -33.1648239304        9.7375500802  MEMB      89              0.0000000000
     10914        89  PMPE      H5S            29.7712197716      -33.4488526294       10.6218650031  MEMB      89              0.0000000000
     10915        89  PMPE      C26            30.1660612104      -32.3326050369        9.0510901447  MEMB      89              0.0000000000
     10916        89  PMPE      H6R            31.1325190115      -32.2538372763        9.5308391973  MEMB      89              0.0000000000
     10917        89  PMPE      H6S            29.6209140955      -31.4169344654        8.6590849960  MEMB      89              0.0000000000
     10918        89  PMPE      C27            30.8962616894      -33.2236794835        7.8840295210  MEMB      89              0.0000000000
     10919        89  PMPE      H7R            31.3020372876      -32.6681772408        7.0143514068  MEMB      89              0.0000000000
     10920        89  PMPE      H7S            30.0273308240      -32.7015347376        7.4485436114  MEMB      89              0.0000000000
     10921        89  PMPE      C28            31.2336751249      -35.0026595844        7.6410277343  MEMB      89              0.0000000000
     10922        89  PMPE      H8R            31.6259254831      -35.1411876518        8.5785863382  MEMB      89              0.0000000000
     10923        89  PMPE      H8S            31.9930875799      -35.2625821163        6.8977748897  MEMB      89              0.0000000000
     10924        89  PMPE      C29            30.1670813091      -36.3978582850        7.3318724672  MEMB      89              0.0000000000
     10925        89  PMPE      H9R            29.1670855755      -36.6106569378        7.7435804388  MEMB      89              0.0000000000
     10926        89  PMPE      C217           30.6737659895      -37.5254056430        6.7180849460  MEMB      89              0.0000000000
     10927        89  PMPE      H17R           30.5696763760      -38.2130180714        7.4568540696  MEMB      89              0.0000000000
     10928        89  PMPE      H17S           31.6521848214      -37.3126405494        6.3876531902  MEMB      89              0.0000000000
     10929        89  PMPE      C210           29.3253467318      -36.9641334849        6.1561124854  MEMB      89              0.0000000000
     10930        89  PMPE      H10R           28.2136965371      -37.0340296549        6.3180683654  MEMB      89              0.0000000000
     10931        89  PMPE      C211           29.4121945612      -36.4757046899        4.8491492593  MEMB      89              0.0000000000
     10932        89  PMPE      H11R           29.8141892988      -37.1881202156        4.1411799712  MEMB      89              0.0000000000
     10933        89  PMPE      H11S           30.3912841291      -36.1242890070        5.2250184722  MEMB      89              0.0000000000
     10934        89  PMPE      C212           28.2679866955      -35.4354228874        4.1472577902  MEMB      89              0.0000000000
     10935        89  PMPE      H12R           27.5911991650      -35.1374250690        4.9613426262  MEMB      89              0.0000000000
     10936        89  PMPE      H12S           27.6693944053      -36.0660717691        3.5179665377  MEMB      89              0.0000000000
     10937        89  PMPE      C213           28.4356909922      -34.1305199698        3.1240669500  MEMB      89              0.0000000000
     10938        89  PMPE      H13R           28.8414691953      -34.4220727869        2.1575117872  MEMB      89              0.0000000000
     10939        89  PMPE      H13S           29.0722049948      -33.1905729263        3.1364681559  MEMB      89              0.0000000000
     10940        89  PMPE      C214           27.4576301225      -33.0138298768        3.3721280711  MEMB      89              0.0000000000
     10941        89  PMPE      H14R           27.5633161235      -32.2245571340        2.7243382019  MEMB      89              0.0000000000
     10942        89  PMPE      H14S           27.6889202135      -32.0976324169        3.9680012647  MEMB      89              0.0000000000
     10943        89  PMPE      C215           26.1915274947      -33.6707455289        3.2532838217  MEMB      89              0.0000000000
     10944        89  PMPE      H15R           25.9572817527      -33.7251435498        4.3127732982  MEMB      89              0.0000000000
     10945        89  PMPE      H15S           26.2995242886      -34.6799226004        2.7648020621  MEMB      89              0.0000000000
     10946        89  PMPE      C216           25.2959564734      -32.8517940351        2.4485990043  MEMB      89              0.0000000000
     10947        89  PMPE      H16R           24.3871476446      -33.3911605354        2.1481978171  MEMB      89              0.0000000000
     10948        89  PMPE      H16S           25.2003256108      -31.8399270657        2.8609722316  MEMB      89              0.0000000000
     10949        89  PMPE      H16T           25.7059645092      -32.5502703576        1.5051935636  MEMB      89              0.0000000000
     10950        89  PMPE      C33            34.0609457218      -33.0743282134        9.8290378257  MEMB      89              0.0000000000
     10951        89  PMPE      H3X            33.0643521963      -33.4395275363        9.4135871466  MEMB      89              0.0000000000
     10952        89  PMPE      H3Y            34.7633895185      -33.8534866185       10.2305258019  MEMB      89              0.0000000000
     10953        89  PMPE      C34            34.9064518093      -33.3043162309        8.7040007458  MEMB      89              0.0000000000
     10954        89  PMPE      H4X            34.8479568143      -34.3536386373        8.3811657819  MEMB      89              0.0000000000
     10955        89  PMPE      H4Y            35.9745258522      -33.2209907946        8.9799599743  MEMB      89              0.0000000000
     10956        89  PMPE      C35            34.1677350640      -32.4693380220        7.7749543597  MEMB      89              0.0000000000
     10957        89  PMPE      H5X            34.3799574946      -31.4896889108        8.2417572060  MEMB      89              0.0000000000
     10958        89  PMPE      H5Y            33.0707801332      -32.5549895239        7.7724489386  MEMB      89              0.0000000000
     10959        89  PMPE      C36            34.8095923529      -32.8138704509        6.5115846823  MEMB      89              0.0000000000
     10960        89  PMPE      H6X            35.8499135457      -33.1244976918        6.7830288450  MEMB      89              0.0000000000
     10961        89  PMPE      H6Y            34.8469146035      -31.8703195255        5.9542031790  MEMB      89              0.0000000000
     10962        89  PMPE      C37            34.1975119755      -33.8771838506        5.6210304732  MEMB      89              0.0000000000
     10963        89  PMPE      H7X            33.1802862119      -33.6117087727        5.3532519446  MEMB      89              0.0000000000
     10964        89  PMPE      H7Y            34.0894481047      -34.9164679673        5.9963628601  MEMB      89              0.0000000000
     10965        89  PMPE      C38            35.1742747534      -33.8686506937        4.4641960767  MEMB      89              0.0000000000
     10966        89  PMPE      H8X            36.1055106848      -34.2148942875        4.8782099807  MEMB      89              0.0000000000
     10967        89  PMPE      H8Y            35.5278403752      -32.8843091406        4.1163070346  MEMB      89              0.0000000000
     10968        89  PMPE      C39            34.6917517062      -34.5449080653        3.2334209259  MEMB      89              0.0000000000
     10969        89  PMPE      H9X            34.4408337093      -35.6455056672        3.2517694979  MEMB      89              0.0000000000
     10970        89  PMPE      H9Y            35.4926599793      -34.3818762577        2.4947883020  MEMB      89              0.0000000000
     10971        89  PMPE      C310           33.6064651108      -33.6194466129        2.8678333827  MEMB      89              0.0000000000
     10972        89  PMPE      H10X           33.7410792893      -32.5612906866        2.9652654184  MEMB      89              0.0000000000
     10973        89  PMPE      H10Y           32.8218688371      -33.9465214117        3.4100646207  MEMB      89              0.0000000000
     10974        89  PMPE      C311           33.3222033094      -33.6100902769        1.5111960822  MEMB      89              0.0000000000
     10975        89  PMPE      H11X           32.9735208434      -34.5998004933        1.5743244670  MEMB      89              0.0000000000
     10976        89  PMPE      H11Y           34.3216745199      -33.5035767536        1.0578525455  MEMB      89              0.0000000000
     10977        89  PMPE      C312           32.1429966479      -33.0193551101        0.8890815095  MEMB      89              0.0000000000
     10978        89  PMPE      H12X           32.3852837725      -31.9620640664        0.9262141779  MEMB      89              0.0000000000
     10979        89  PMPE      H12Y           31.1359311480      -33.2339739184        1.2729289902  MEMB      89              0.0000000000
     10980        89  PMPE      C313           32.2434090548      -33.4252428824       -0.4887948059  MEMB      89              0.0000000000
     10981        89  PMPE      H13X           32.8247229903      -34.0317430274       -1.1032330520  MEMB      89              0.0000000000
     10982        89  PMPE      H13Y           32.2861339156      -32.4623421841       -0.8648126312  MEMB      89              0.0000000000
     10983        89  PMPE      C314           31.4215803819      -33.4417909209       -1.4521163544  MEMB      89              0.0000000000
     10984        89  PMPE      H14X           31.0207393097      -34.4394846973       -0.9490600567  MEMB      89              0.0000000000
     10985        89  PMPE      H14Y           31.2383453776      -34.3107705820       -2.1488740395  MEMB      89              0.0000000000
     10986        89  PMPE      C315           30.3426442630      -31.8356798160       -1.6631757194  MEMB      89              0.0000000000
     10987        89  PMPE      H15X           30.7184493021      -31.0486169419       -2.1544526635  MEMB      89              0.0000000000
     10988        89  PMPE      H15Y           30.6620813670      -31.6401098558       -0.6588138053  MEMB      89              0.0000000000
     10989        89  PMPE      C316           28.0372692580      -32.5790028166       -2.5218914067  MEMB      89              0.0000000000
     10990        89  PMPE      H16X           28.0966831553      -33.5124214907       -3.2258959939  MEMB      89              0.0000000000
     10991        89  PMPE      H16Y           27.4997123358      -32.0661819033       -3.0940778193  MEMB      89              0.0000000000
     10992        89  PMPE      H16Z           27.6317900890      -33.5491371221       -2.2351324503  MEMB      89              0.0000000000
     10993        90  PVCL2     C3            -34.2203263012       27.4427367031       19.5010844266  MEMB      90              0.0000000000
     10994        90  PVCL2     HG31          -33.2567309960       27.5179183384       18.9447620639  MEMB      90              0.0000000000
     10995        90  PVCL2     HG32          -34.7619362566       26.5493185273       19.1174287390  MEMB      90              0.0000000000
     10996        90  PVCL2     P3            -35.1965425440       29.1868917364       17.8832338954  MEMB      90              0.0000000000
     10997        90  PVCL2     OP33          -34.7999384296       28.1862091774       16.8715363418  MEMB      90              0.0000000000
     10998        90  PVCL2     OP34          -34.5192400388       30.4951737538       17.8475252851  MEMB      90              0.0000000000
     10999        90  PVCL2     OP31          -35.0467982329       28.5987834529       19.3460827191  MEMB      90              0.0000000000
     11000        90  PVCL2     OP32          -36.7477419076       29.4226895085       17.8322075060  MEMB      90              0.0000000000
     11001        90  PVCL2     C31           -37.7152559624       28.5639915170       18.4628201286  MEMB      90              0.0000000000
     11002        90  PVCL2     H31J          -37.2975022988       28.0591432548       19.3641885503  MEMB      90              0.0000000000
     11003        90  PVCL2     H31K          -38.6053462669       29.1561106227       18.7304421835  MEMB      90              0.0000000000
     11004        90  PVCL2     C2            -33.8955441241       27.3253564741       20.9965551922  MEMB      90              0.0000000000
     11005        90  PVCL2     HG22          -34.8484797063       27.4929023224       21.5040496043  MEMB      90              0.0000000000
     11006        90  PVCL2     OG12          -33.4964081081       26.0069970981       21.3576601199  MEMB      90              0.0000000000
     11007        90  PVCL2     HO12          -34.2571827116       25.4192396745       21.2702993904  MEMB      90              0.0000000000
     11008        90  PVCL2     C1            -32.9034260149       28.4171290984       21.5045850918  MEMB      90              0.0000000000
     11009        90  PVCL2     HG11          -32.8130395172       28.3061988694       22.6149718554  MEMB      90              0.0000000000
     11010        90  PVCL2     HG12          -33.3329566502       29.4251954890       21.2970580662  MEMB      90              0.0000000000
     11011        90  PVCL2     P1            -30.3899589755       29.0823809725       21.3728032843  MEMB      90              0.0000000000
     11012        90  PVCL2     OP13          -30.7252648081       30.5243829532       21.4193539362  MEMB      90              0.0000000000
     11013        90  PVCL2     OP14          -29.9438069734       28.4144143294       22.6143579126  MEMB      90              0.0000000000
     11014        90  PVCL2     OP11          -31.6466718969       28.3183109450       20.8223457482  MEMB      90              0.0000000000
     11015        90  PVCL2     OP12          -29.2994444665       28.8753831590       20.2129239573  MEMB      90              0.0000000000
     11016        90  PVCL2     C11           -29.6130100440       29.3583326916       18.8856008598  MEMB      90              0.0000000000
     11017        90  PVCL2     H11J          -28.6617684063       29.5936435950       18.3606564904  MEMB      90              0.0000000000
     11018        90  PVCL2     H11K          -30.1862822710       30.3152886305       18.9233035573  MEMB      90              0.0000000000
     11019        90  PVCL2     C12           -30.3828257746       28.3487945957       17.9565935754  MEMB      90              0.0000000000
     11020        90  PVCL2     H12J          -31.3345068249       28.0820568403       18.4707727209  MEMB      90              0.0000000000
     11021        90  PVCL2     O12           -29.5378504217       27.2039275378       17.7065608725  MEMB      90              0.0000000000
     11022        90  PVCL2     CA1           -30.1558599717       26.1512506032       17.2208204319  MEMB      90              0.0000000000
     11023        90  PVCL2     OA1           -31.3577724866       25.9656713271       17.1456239528  MEMB      90              0.0000000000
     11024        90  PVCL2     CA2           -29.0805535767       25.1750259750       16.7573662033  MEMB      90              0.0000000000
     11025        90  PVCL2     H2A           -28.6202824800       24.7831352647       17.6871231127  MEMB      90              0.0000000000
     11026        90  PVCL2     H2B           -28.2842780693       25.6750527899       16.1767009149  MEMB      90              0.0000000000
     11027        90  PVCL2     C13           -30.7055641088       29.0213888424       16.5799363809  MEMB      90              0.0000000000
     11028        90  PVCL2     H13J          -29.7144487331       29.0407034942       16.0713290321  MEMB      90              0.0000000000
     11029        90  PVCL2     H13K          -31.0793465066       30.0553085599       16.7546986976  MEMB      90              0.0000000000
     11030        90  PVCL2     O13           -31.6384355589       28.2766750895       15.7756298611  MEMB      90              0.0000000000
     11031        90  PVCL2     CB1           -31.8231459377       28.7273794456       14.5341749806  MEMB      90              0.0000000000
     11032        90  PVCL2     OB1           -31.3138790118       29.7332753603       14.0738110855  MEMB      90              0.0000000000
     11033        90  PVCL2     CB2           -32.7224316048       27.7225291876       13.7849187853  MEMB      90              0.0000000000
     11034        90  PVCL2     H2D           -33.7480719342       27.8630699607       14.1884436811  MEMB      90              0.0000000000
     11035        90  PVCL2     H2E           -32.3648990349       26.7044603059       14.0355890274  MEMB      90              0.0000000000
     11036        90  PVCL2     C32           -38.2979088092       27.4664256481       17.5714278633  MEMB      90              0.0000000000
     11037        90  PVCL2     H32J          -38.9455052750       26.7688216373       18.1486894139  MEMB      90              0.0000000000
     11038        90  PVCL2     O32           -37.1651584920       26.8074479555       17.1878755627  MEMB      90              0.0000000000
     11039        90  PVCL2     CC1           -37.2656758985       25.6498317679       16.7972202711  MEMB      90              0.0000000000
     11040        90  PVCL2     OC1           -38.2241656678       24.9422577146       16.5813529317  MEMB      90              0.0000000000
     11041        90  PVCL2     CC2           -36.0071041644       25.4620433400       16.2302189784  MEMB      90              0.0000000000
     11042        90  PVCL2     H2R           -35.8207903198       24.3975289846       16.4826117753  MEMB      90              0.0000000000
     11043        90  PVCL2     H2S           -35.0121201554       25.8070850794       16.6024414035  MEMB      90              0.0000000000
     11044        90  PVCL2     C33           -39.0640467099       28.0134907206       16.3637373522  MEMB      90              0.0000000000
     11045        90  PVCL2     H33J          -39.4329822833       27.1656411591       15.7372699692  MEMB      90              0.0000000000
     11046        90  PVCL2     H33K          -39.9510102112       28.5109377151       16.8093843312  MEMB      90              0.0000000000
     11047        90  PVCL2     O33           -38.3283042627       29.0201026111       15.6371133255  MEMB      90              0.0000000000
     11048        90  PVCL2     CD1           -38.0821274943       28.8376479174       14.3616127831  MEMB      90              0.0000000000
     11049        90  PVCL2     OD1           -38.2614349496       27.8295852490       13.7153865092  MEMB      90              0.0000000000
     11050        90  PVCL2     CD2           -37.6677901690       30.1657752759       13.7584891874  MEMB      90              0.0000000000
     11051        90  PVCL2     H2X           -38.3343486971       30.9412468107       14.1833549200  MEMB      90              0.0000000000
     11052        90  PVCL2     H2Y           -37.7870582406       30.1477279879       12.6582710419  MEMB      90              0.0000000000
     11053        90  PVCL2     CA3           -29.7009905388       24.0457569976       15.9443576780  MEMB      90              0.0000000000
     11054        90  PVCL2     H3A           -30.6538315543       23.7221740287       16.4322620865  MEMB      90              0.0000000000
     11055        90  PVCL2     H3B           -29.0274237637       23.1611984844       15.9954157682  MEMB      90              0.0000000000
     11056        90  PVCL2     CA4           -30.0026173903       24.3508299715       14.4560160106  MEMB      90              0.0000000000
     11057        90  PVCL2     H4A           -30.9221933905       24.9501685496       14.3542485007  MEMB      90              0.0000000000
     11058        90  PVCL2     H4B           -30.1399260622       23.4114033552       13.8707238876  MEMB      90              0.0000000000
     11059        90  PVCL2     CA5           -28.8595342162       24.9160775010       13.6639381846  MEMB      90              0.0000000000
     11060        90  PVCL2     H5A           -28.0850234859       24.2219915618       13.9938555901  MEMB      90              0.0000000000
     11061        90  PVCL2     H5B           -28.6374554786       25.9403358217       14.0071785381  MEMB      90              0.0000000000
     11062        90  PVCL2     CA6           -29.1007468264       24.7486576100       12.1540522181  MEMB      90              0.0000000000
     11063        90  PVCL2     H6A           -30.1595578340       25.0093401198       11.9604305807  MEMB      90              0.0000000000
     11064        90  PVCL2     H6B           -28.9757509530       23.6709771297       11.9157570024  MEMB      90              0.0000000000
     11065        90  PVCL2     CA7           -28.1577380468       25.5530003482       11.2505138945  MEMB      90              0.0000000000
     11066        90  PVCL2     H7A           -27.1312838278       25.2046470148       11.4886775923  MEMB      90              0.0000000000
     11067        90  PVCL2     H7B           -28.2448171015       26.6258082691       11.5243524001  MEMB      90              0.0000000000
     11068        90  PVCL2     CA8           -28.3599712470       25.3872652524        9.7307678112  MEMB      90              0.0000000000
     11069        90  PVCL2     H8A           -29.3808471002       25.7016692246        9.4254353310  MEMB      90              0.0000000000
     11070        90  PVCL2     H8B           -28.2547560892       24.3053502795        9.4846736689  MEMB      90              0.0000000000
     11071        90  PVCL2     CA9           -27.2992173605       26.1074279901        8.8746360658  MEMB      90              0.0000000000
     11072        90  PVCL2     H9A           -26.2985017333       25.8461550442        9.2643224260  MEMB      90              0.0000000000
     11073        90  PVCL2     H9B           -27.3829340697       27.2178043877        8.9223465571  MEMB      90              0.0000000000
     11074        90  PVCL2     CA10          -27.3714796969       25.6213943374        7.4256396510  MEMB      90              0.0000000000
     11075        90  PVCL2     H10A          -28.3938516900       25.8677462053        7.0792523032  MEMB      90              0.0000000000
     11076        90  PVCL2     H10B          -27.2798910249       24.5176560262        7.4114017728  MEMB      90              0.0000000000
     11077        90  PVCL2     CA11          -26.2911007089       26.2209811727        6.5793496637  MEMB      90              0.0000000000
     11078        90  PVCL2     H11A          -25.2705540360       25.9652616578        6.8392474400  MEMB      90              0.0000000000
     11079        90  PVCL2     CA12          -26.5104768351       26.9753805869        5.5198848070  MEMB      90              0.0000000000
     11080        90  PVCL2     H12A          -25.7011486171       27.3643829881        4.8794415372  MEMB      90              0.0000000000
     11081        90  PVCL2     CA13          -27.8626158271       27.2968487276        5.0559087339  MEMB      90              0.0000000000
     11082        90  PVCL2     H13A          -27.9187592766       28.3219573888        4.7777801794  MEMB      90              0.0000000000
     11083        90  PVCL2     H13B          -28.7779997136       27.0324093783        5.6488573329  MEMB      90              0.0000000000
     11084        90  PVCL2     CA14          -27.8532842206       26.5664332353        3.7688259496  MEMB      90              0.0000000000
     11085        90  PVCL2     H14A          -28.9655513238       26.7910251337        3.6826310199  MEMB      90              0.0000000000
     11086        90  PVCL2     H14B          -28.0207134273       25.4847656275        3.8307232373  MEMB      90              0.0000000000
     11087        90  PVCL2     CA15          -26.7220468678       27.1147700647        2.6406598186  MEMB      90              0.0000000000
     11088        90  PVCL2     H15A          -25.7162525131       26.7869302631        2.8205091508  MEMB      90              0.0000000000
     11089        90  PVCL2     H15B          -26.5877470484       28.1304836582        2.6902739660  MEMB      90              0.0000000000
     11090        90  PVCL2     CA16          -26.7460016569       26.8668428455        1.0567933439  MEMB      90              0.0000000000
     11091        90  PVCL2     H16A          -26.2746410464       27.1881594495        0.2562094670  MEMB      90              0.0000000000
     11092        90  PVCL2     H16B          -27.4271502331       27.2411395475        0.2023091661  MEMB      90              0.0000000000
     11093        90  PVCL2     CA17          -27.0509043454       25.6936865378        1.0265027140  MEMB      90              0.0000000000
     11094        90  PVCL2     H17A          -27.8838876000       25.8006251286        1.6894829143  MEMB      90              0.0000000000
     11095        90  PVCL2     H17B          -26.6670432844       25.1490476618        1.8073998966  MEMB      90              0.0000000000
     11096        90  PVCL2     CA18          -27.2168370881       25.2540041652       -0.3563553809  MEMB      90              0.0000000000
     11097        90  PVCL2     H18A          -28.1653870996       25.7556145952       -0.6627550329  MEMB      90              0.0000000000
     11098        90  PVCL2     H18B          -27.2711519312       24.1654258599       -0.2526083897  MEMB      90              0.0000000000
     11099        90  PVCL2     H18C          -26.6371087867       25.4069134137       -1.2090095571  MEMB      90              0.0000000000
     11100        90  PVCL2     CB3           -32.7895638864       27.8558157197       12.2425777434  MEMB      90              0.0000000000
     11101        90  PVCL2     H3D           -32.5277450953       28.8862574582       11.9370743055  MEMB      90              0.0000000000
     11102        90  PVCL2     H3E           -33.8449904713       27.6931207129       11.9379847797  MEMB      90              0.0000000000
     11103        90  PVCL2     CB4           -31.9244654643       26.8277428991       11.4958909472  MEMB      90              0.0000000000
     11104        90  PVCL2     H4D           -32.2019025942       25.7822222270       11.7647879030  MEMB      90              0.0000000000
     11105        90  PVCL2     H4E           -30.8746883661       26.9752427936       11.8162285556  MEMB      90              0.0000000000
     11106        90  PVCL2     CB5           -32.0271254285       26.9367462261        9.9755597390  MEMB      90              0.0000000000
     11107        90  PVCL2     H5D           -33.0892012854       26.8907991041        9.6610492757  MEMB      90              0.0000000000
     11108        90  PVCL2     H5E           -31.5336757592       26.0575274436        9.5035244688  MEMB      90              0.0000000000
     11109        90  PVCL2     CB6           -31.3543549760       28.1826100429        9.4216268462  MEMB      90              0.0000000000
     11110        90  PVCL2     H6D           -30.3325270402       28.2689023152        9.8629352861  MEMB      90              0.0000000000
     11111        90  PVCL2     H6E           -31.8640227352       29.1200495400        9.7472298802  MEMB      90              0.0000000000
     11112        90  PVCL2     CB7           -31.2572958918       28.0601501029        7.8901309048  MEMB      90              0.0000000000
     11113        90  PVCL2     H7D           -32.1519416635       27.6526781301        7.3964160350  MEMB      90              0.0000000000
     11114        90  PVCL2     H7E           -30.3525384344       27.4626477110        7.6234429832  MEMB      90              0.0000000000
     11115        90  PVCL2     CB8           -31.0486702286       29.3987306496        7.2802796947  MEMB      90              0.0000000000
     11116        90  PVCL2     H8D           -30.6674824324       29.3506525979        6.2304595299  MEMB      90              0.0000000000
     11117        90  PVCL2     H8E           -30.2357743105       29.5862559964        8.0004054998  MEMB      90              0.0000000000
     11118        90  PVCL2     CB9           -32.2150103930       30.3850332507        7.4775603190  MEMB      90              0.0000000000
     11119        90  PVCL2     H9D           -32.3186251109       30.7416416270        8.5174543196  MEMB      90              0.0000000000
     11120        90  PVCL2     H9E           -33.0839754887       29.9017056827        6.9881866393  MEMB      90              0.0000000000
     11121        90  PVCL2     CB10          -32.1554601288       31.6483524740        6.7043753910  MEMB      90              0.0000000000
     11122        90  PVCL2     H10D          -31.7407319191       31.1202657072        5.8413807169  MEMB      90              0.0000000000
     11123        90  PVCL2     H10E          -31.5630200768       32.5209212157        7.0935048147  MEMB      90              0.0000000000
     11124        90  PVCL2     CB11          -33.3653919741       32.2172875077        6.0788161632  MEMB      90              0.0000000000
     11125        90  PVCL2     H11D          -33.0142615026       33.1840885225        5.8131962721  MEMB      90              0.0000000000
     11126        90  PVCL2     H11E          -34.0847166205       32.6089330364        6.7904266920  MEMB      90              0.0000000000
     11127        90  PVCL2     CB12          -33.8335085283       31.5783034004        4.7495740086  MEMB      90              0.0000000000
     11128        90  PVCL2     H12D          -34.3671474844       32.4238689385        4.2515068039  MEMB      90              0.0000000000
     11129        90  PVCL2     H12E          -34.4990120127       30.7905183844        5.0887818932  MEMB      90              0.0000000000
     11130        90  PVCL2     CB13          -32.9299815123       30.8458087663        3.7009558583  MEMB      90              0.0000000000
     11131        90  PVCL2     H13D          -32.1883747597       30.1181738392        4.0617670601  MEMB      90              0.0000000000
     11132        90  PVCL2     H13E          -32.2173688705       31.4265207437        3.2001186511  MEMB      90              0.0000000000
     11133        90  PVCL2     CB14          -33.5115593069       30.8149265567        2.2997130152  MEMB      90              0.0000000000
     11134        90  PVCL2     H14D          -34.0056549210       31.8008111550        2.0864746930  MEMB      90              0.0000000000
     11135        90  PVCL2     H14E          -34.2283165031       29.9895879789        2.3175740520  MEMB      90              0.0000000000
     11136        90  PVCL2     CB15          -32.4486502963       30.5870045943        1.2179691767  MEMB      90              0.0000000000
     11137        90  PVCL2     H15D          -31.9931835953       29.5965972563        1.4097966401  MEMB      90              0.0000000000
     11138        90  PVCL2     H15E          -31.6226205029       31.3225936162        1.2039609762  MEMB      90              0.0000000000
     11139        90  PVCL2     CB16          -33.0522335284       30.6730755424       -0.1514951475  MEMB      90              0.0000000000
     11140        90  PVCL2     H16D          -33.8797968352       29.9412152525       -0.2139049119  MEMB      90              0.0000000000
     11141        90  PVCL2     H16E          -32.2656980773       30.4759207914       -0.9052964724  MEMB      90              0.0000000000
     11142        90  PVCL2     H16F          -33.4546775494       31.6849510593       -0.3194232085  MEMB      90              0.0000000000
     11143        90  PVCL2     CC3           -36.6738523652       26.0565801861       14.8422343431  MEMB      90              0.0000000000
     11144        90  PVCL2     H3R           -35.4829284386       26.0814921082       14.6615811132  MEMB      90              0.0000000000
     11145        90  PVCL2     H3S           -36.3184040189       27.0837401494       14.5704990035  MEMB      90              0.0000000000
     11146        90  PVCL2     CC4           -37.8192162996       24.9483994760       13.4109312132  MEMB      90              0.0000000000
     11147        90  PVCL2     H4R           -38.5572785956       25.5244825813       13.7230219440  MEMB      90              0.0000000000
     11148        90  PVCL2     H4S           -37.7580222999       23.8847723424       13.1775927446  MEMB      90              0.0000000000
     11149        90  PVCL2     CC5           -37.2784608112       23.9616042132       11.8139962169  MEMB      90              0.0000000000
     11150        90  PVCL2     H5R           -37.3699826461       24.8538160252       11.2425991168  MEMB      90              0.0000000000
     11151        90  PVCL2     H5S           -38.0828705397       24.0408046141       11.1051360634  MEMB      90              0.0000000000
     11152        90  PVCL2     CC6           -35.6856276513       23.1060048361       11.3518482830  MEMB      90              0.0000000000
     11153        90  PVCL2     H6R           -35.3629595724       22.3248226727       12.0182124689  MEMB      90              0.0000000000
     11154        90  PVCL2     H6S           -34.6512185115       23.5473200047       11.5262570792  MEMB      90              0.0000000000
     11155        90  PVCL2     CC7           -34.7542081096       23.0759937927       10.0233941532  MEMB      90              0.0000000000
     11156        90  PVCL2     H7R           -34.2852221058       23.8158286330        9.2830498936  MEMB      90              0.0000000000
     11157        90  PVCL2     H7S           -35.5176874733       22.5469898110        9.5628696769  MEMB      90              0.0000000000
     11158        90  PVCL2     CC8           -33.9258268641       22.0047105746        9.8307643297  MEMB      90              0.0000000000
     11159        90  PVCL2     H8R           -34.3676962939       21.2902570337       10.5922433376  MEMB      90              0.0000000000
     11160        90  PVCL2     H8S           -32.9972221698       22.5621282379        9.8876102672  MEMB      90              0.0000000000
     11161        90  PVCL2     CC9           -33.8638249215       21.6781843526        8.4676253452  MEMB      90              0.0000000000
     11162        90  PVCL2     H9R           -34.4584840671       22.4368270109        7.9257374339  MEMB      90              0.0000000000
     11163        90  PVCL2     H9S           -34.3686968242       20.7703149985        8.8611219296  MEMB      90              0.0000000000
     11164        90  PVCL2     CC10          -32.4744979287       21.5670608709        7.9154372713  MEMB      90              0.0000000000
     11165        90  PVCL2     H10R          -32.2439383240       20.8612311158        7.1201742043  MEMB      90              0.0000000000
     11166        90  PVCL2     H10S          -32.0966232968       20.7498382690        8.5200325094  MEMB      90              0.0000000000
     11167        90  PVCL2     CC11          -31.8432910927       22.9826002985        7.7986279368  MEMB      90              0.0000000000
     11168        90  PVCL2     H11R          -32.3509352339       23.7636948778        8.3646354375  MEMB      90              0.0000000000
     11169        90  PVCL2     CC12          -30.6518464585       23.3910117244        7.3386122829  MEMB      90              0.0000000000
     11170        90  PVCL2     H12R          -30.2408985416       24.3840593735        7.4789229954  MEMB      90              0.0000000000
     11171        90  PVCL2     CC13          -29.6272708333       22.5374620317        6.8126677770  MEMB      90              0.0000000000
     11172        90  PVCL2     H13R          -30.1499463028       21.5566527205        6.8644775585  MEMB      90              0.0000000000
     11173        90  PVCL2     H13S          -28.6321740432       22.5604878275        7.3497846218  MEMB      90              0.0000000000
     11174        90  PVCL2     CC14          -29.3442277210       22.5733077237        5.3542745983  MEMB      90              0.0000000000
     11175        90  PVCL2     H14R          -28.8748891318       23.4302430749        4.8902401369  MEMB      90              0.0000000000
     11176        90  PVCL2     H14S          -30.0712761168       21.8925582121        4.9204331028  MEMB      90              0.0000000000
     11177        90  PVCL2     CC15          -28.3614950589       21.5868574803        4.8926263327  MEMB      90              0.0000000000
     11178        90  PVCL2     H15R          -28.5833781380       21.1344532314        5.8726906398  MEMB      90              0.0000000000
     11179        90  PVCL2     H15S          -27.3380967317       21.7612409829        5.1899462583  MEMB      90              0.0000000000
     11180        90  PVCL2     CC16          -28.6577245225       20.7677745578        3.4727153686  MEMB      90              0.0000000000
     11181        90  PVCL2     H16R          -29.6900970132       20.6484340361        3.1979705591  MEMB      90              0.0000000000
     11182        90  PVCL2     H16S          -28.2714872834       19.7460497517        3.0966246332  MEMB      90              0.0000000000
     11183        90  PVCL2     CC17          -27.7390634394       21.1195295881        2.5648817441  MEMB      90              0.0000000000
     11184        90  PVCL2     H17R          -27.1463917040       20.5760545488        1.8063001464  MEMB      90              0.0000000000
     11185        90  PVCL2     H17S          -27.0599636733       21.3988005010        3.3716093313  MEMB      90              0.0000000000
     11186        90  PVCL2     CC18          -28.5744585266       22.1155136622        2.0463917101  MEMB      90              0.0000000000
     11187        90  PVCL2     H18R          -28.7126556256       22.8903133842        2.8494635383  MEMB      90              0.0000000000
     11188        90  PVCL2     H18S          -29.4617836260       21.7589852854        1.6123155068  MEMB      90              0.0000000000
     11189        90  PVCL2     H18T          -28.1254445791       22.4407901395        1.1302107923  MEMB      90              0.0000000000
     11190        90  PVCL2     CD3           -36.1914605652       30.3640639618       14.0898642444  MEMB      90              0.0000000000
     11191        90  PVCL2     H3X           -35.6298906889       29.5834521877       13.5309671894  MEMB      90              0.0000000000
     11192        90  PVCL2     H3Y           -36.0216752916       30.1786246139       15.1766576075  MEMB      90              0.0000000000
     11193        90  PVCL2     CD4           -35.6467370049       31.7734481546       13.8410911128  MEMB      90              0.0000000000
     11194        90  PVCL2     H4X           -34.5891884838       31.7717192042       14.2004950603  MEMB      90              0.0000000000
     11195        90  PVCL2     H4Y           -36.2260902744       32.4673989095       14.4910556385  MEMB      90              0.0000000000
     11196        90  PVCL2     CD5           -35.6486428616       32.2557558961       12.3826834541  MEMB      90              0.0000000000
     11197        90  PVCL2     H5X           -35.1149693843       33.2370973130       12.3530253632  MEMB      90              0.0000000000
     11198        90  PVCL2     H5Y           -36.6909339157       32.4655222050       12.0558624024  MEMB      90              0.0000000000
     11199        90  PVCL2     CD6           -34.9072446731       31.2775378657       11.4455654487  MEMB      90              0.0000000000
     11200        90  PVCL2     H6X           -34.0876383842       30.8031024924       12.0338065919  MEMB      90              0.0000000000
     11201        90  PVCL2     H6Y           -34.3974970961       31.8483685555       10.6398412936  MEMB      90              0.0000000000
     11202        90  PVCL2     CD7           -35.8354711088       30.2638867737       10.7415841156  MEMB      90              0.0000000000
     11203        90  PVCL2     H7X           -36.7958851086       30.7859622365       10.5139783473  MEMB      90              0.0000000000
     11204        90  PVCL2     H7Y           -36.0968791312       29.4211636951       11.4143686921  MEMB      90              0.0000000000
     11205        90  PVCL2     CD8           -35.3079035879       29.7232818397        9.3978821927  MEMB      90              0.0000000000
     11206        90  PVCL2     H8X           -34.3400833174       29.1868416066        9.4968809462  MEMB      90              0.0000000000
     11207        90  PVCL2     H8Y           -35.1742187733       30.5868503182        8.7114534249  MEMB      90              0.0000000000
     11208        90  PVCL2     CD9           -36.3398053193       28.8376138820        8.7110270334  MEMB      90              0.0000000000
     11209        90  PVCL2     H9X           -37.2848239004       29.3575927570        8.7480533615  MEMB      90              0.0000000000
     11210        90  PVCL2     H9Y           -36.5302182711       27.9380975888        9.2649386227  MEMB      90              0.0000000000
     11211        90  PVCL2     CD10          -36.1703462553       28.6488350746        7.2180692607  MEMB      90              0.0000000000
     11212        90  PVCL2     H10X          -35.6442505948       29.5016090278        6.7814209692  MEMB      90              0.0000000000
     11213        90  PVCL2     H10Y          -37.1769205833       28.5602992412        6.7431286382  MEMB      90              0.0000000000
     11214        90  PVCL2     CD11          -35.3976966155       27.4060358700        6.9259202025  MEMB      90              0.0000000000
     11215        90  PVCL2     H11X          -36.1806681191       26.7436098642        7.2140867619  MEMB      90              0.0000000000
     11216        90  PVCL2     H11Y          -34.5505073931       27.2005165103        7.5944846347  MEMB      90              0.0000000000
     11217        90  PVCL2     CD12          -35.1291364667       27.1334307503        5.4657784934  MEMB      90              0.0000000000
     11218        90  PVCL2     H12X          -36.0892034652       27.2617207223        4.9116908476  MEMB      90              0.0000000000
     11219        90  PVCL2     H12Y          -34.7065352097       26.1022210986        5.4230981594  MEMB      90              0.0000000000
     11220        90  PVCL2     CD13          -34.0518198739       27.8668759535        4.7668606640  MEMB      90              0.0000000000
     11221        90  PVCL2     H13X          -33.2027577645       27.7799678772        5.4710498605  MEMB      90              0.0000000000
     11222        90  PVCL2     H13Y          -34.4685176521       28.8812618116        4.6894223817  MEMB      90              0.0000000000
     11223        90  PVCL2     CD14          -33.6983780721       27.2650064260        3.3988978453  MEMB      90              0.0000000000
     11224        90  PVCL2     H14X          -33.0224603573       27.9359133781        2.8382142647  MEMB      90              0.0000000000
     11225        90  PVCL2     H14Y          -34.6075406915       27.1539612930        2.7603957533  MEMB      90              0.0000000000
     11226        90  PVCL2     CD15          -33.0205826506       25.9032422235        3.4811211822  MEMB      90              0.0000000000
     11227        90  PVCL2     H15X          -33.5543373712       25.1968963385        4.1517482433  MEMB      90              0.0000000000
     11228        90  PVCL2     H15Y          -32.0011172758       25.9651200946        3.9185846005  MEMB      90              0.0000000000
     11229        90  PVCL2     CD16          -33.0310660361       25.2481454046        2.1291299944  MEMB      90              0.0000000000
     11230        90  PVCL2     H16X          -32.1816953909       25.5074881524        1.4795841548  MEMB      90              0.0000000000
     11231        90  PVCL2     H16Y          -33.8931032098       25.1867327940        1.5093590075  MEMB      90              0.0000000000
     11232        90  PVCL2     H16Z          -33.1284158344       24.1910246384        2.2727167391  MEMB      90              0.0000000000
     11233        91  PMPE      N              33.5839057019      -28.3346700529       19.2632954984  MEMB      91              0.0000000000
     11234        91  PMPE      HN1            33.2388993365      -29.3303242190       19.1216514700  MEMB      91              0.0000000000
     11235        91  PMPE      HN2            32.9465039357      -27.9066841137       19.9625762863  MEMB      91              0.0000000000
     11236        91  PMPE      HN3            33.4417366475      -27.8373680842       18.3691959332  MEMB      91              0.0000000000
     11237        91  PMPE      C12            35.0079070239      -28.2039068005       19.6829221788  MEMB      91              0.0000000000
     11238        91  PMPE      H12A           35.6311343596      -28.4113799586       18.7960661787  MEMB      91              0.0000000000
     11239        91  PMPE      H12B           35.2213456835      -28.9351878612       20.4886964126  MEMB      91              0.0000000000
     11240        91  PMPE      C11            35.2412803582      -26.7866524922       20.1911015268  MEMB      91              0.0000000000
     11241        91  PMPE      H11A           36.1401902012      -26.8059372043       20.8549275464  MEMB      91              0.0000000000
     11242        91  PMPE      H11B           34.3856041254      -26.4484009401       20.8081619439  MEMB      91              0.0000000000
     11243        91  PMPE      P              36.8074341196      -25.4579329926       18.6166245628  MEMB      91              0.0000000000
     11244        91  PMPE      O13            37.7339691046      -25.4254996954       19.7603967048  MEMB      91              0.0000000000
     11245        91  PMPE      O14            36.6723031839      -24.2445835988       17.8206378405  MEMB      91              0.0000000000
     11246        91  PMPE      O11            37.1438598944      -26.7122000146       17.6892739792  MEMB      91              0.0000000000
     11247        91  PMPE      O12            35.3518386676      -25.8748075349       19.1082888476  MEMB      91              0.0000000000
     11248        91  PMPE      C1             36.4405808439      -26.9060312096       16.4513949804  MEMB      91              0.0000000000
     11249        91  PMPE      HA             36.5243391715      -26.0155095264       15.7845281474  MEMB      91              0.0000000000
     11250        91  PMPE      HB             35.3739209459      -27.1232542942       16.6625379918  MEMB      91              0.0000000000
     11251        91  PMPE      C2             37.0223847154      -28.0902406435       15.6362313464  MEMB      91              0.0000000000
     11252        91  PMPE      HS             36.8956848150      -29.0391134275       16.1248093094  MEMB      91              0.0000000000
     11253        91  PMPE      O21            38.3833950715      -27.7331460482       15.3428494989  MEMB      91              0.0000000000
     11254        91  PMPE      C21            39.2351241076      -28.3661547439       14.5810349750  MEMB      91              0.0000000000
     11255        91  PMPE      O22            39.0159536586      -29.2636821900       13.7784746539  MEMB      91              0.0000000000
     11256        91  PMPE      C22            40.6097431554      -27.7563070783       14.8689150504  MEMB      91              0.0000000000
     11257        91  PMPE      H2R            41.2379966440      -28.1150326080       15.6704086007  MEMB      91              0.0000000000
     11258        91  PMPE      H2S            40.4891074690      -26.7160151669       15.2017212459  MEMB      91              0.0000000000
     11259        91  PMPE      C3             36.2260528709      -28.4763878201       14.3981336556  MEMB      91              0.0000000000
     11260        91  PMPE      HX             35.2608037632      -28.8625350120       14.8268806755  MEMB      91              0.0000000000
     11261        91  PMPE      HY             36.7076745059      -29.3277754057       13.8670160002  MEMB      91              0.0000000000
     11262        91  PMPE      O31            36.0339005294      -27.3256120419       13.6119699112  MEMB      91              0.0000000000
     11263        91  PMPE      C31            34.9440282208      -27.3444565600       12.9027771886  MEMB      91              0.0000000000
     11264        91  PMPE      O32            34.2182811607      -28.2997160452       12.6996453769  MEMB      91              0.0000000000
     11265        91  PMPE      C32            34.6869226581      -25.9427238165       12.4490740218  MEMB      91              0.0000000000
     11266        91  PMPE      H2X            34.6171319593      -25.2895607170       13.3391667222  MEMB      91              0.0000000000
     11267        91  PMPE      H2Y            33.7613430021      -25.9087534207       11.8404068762  MEMB      91              0.0000000000
     11268        91  PMPE      C23            41.3498982031      -27.8847315788       13.5673879516  MEMB      91              0.0000000000
     11269        91  PMPE      H3R            41.1841822468      -28.8649333476       13.0633048575  MEMB      91              0.0000000000
     11270        91  PMPE      H3S            42.4460969918      -27.8134266175       13.7293716569  MEMB      91              0.0000000000
     11271        91  PMPE      C24            40.8099533580      -26.7232756729       12.7783557103  MEMB      91              0.0000000000
     11272        91  PMPE      H4R            41.2983598227      -25.8347148436       13.2335765255  MEMB      91              0.0000000000
     11273        91  PMPE      H4S            39.7094187615      -26.5888128249       12.9388188983  MEMB      91              0.0000000000
     11274        91  PMPE      C25            41.1198803828      -26.8368409806       11.3025817168  MEMB      91              0.0000000000
     11275        91  PMPE      H5R            42.2227937381      -26.8699550965       11.1787078570  MEMB      91              0.0000000000
     11276        91  PMPE      H5S            40.7200779205      -25.8986107434       10.8684386921  MEMB      91              0.0000000000
     11277        91  PMPE      C26            40.4955501847      -28.0733398029       10.6315379176  MEMB      91              0.0000000000
     11278        91  PMPE      H6R            39.4301860375      -28.1379731880       10.9470166935  MEMB      91              0.0000000000
     11279        91  PMPE      H6S            40.9919503017      -28.9972547268       11.0107444328  MEMB      91              0.0000000000
     11280        91  PMPE      C27            40.6411349687      -28.0993615184        9.0986226675  MEMB      91              0.0000000000
     11281        91  PMPE      H7R            40.1017957576      -28.9802922414        8.6933536866  MEMB      91              0.0000000000
     11282        91  PMPE      H7S            41.7102559981      -28.2411848534        8.8768622775  MEMB      91              0.0000000000
     11283        91  PMPE      C28            40.1563184870      -26.8538358112        8.3442469788  MEMB      91              0.0000000000
     11284        91  PMPE      H8R            40.9725871892      -26.0957676932        8.3273938639  MEMB      91              0.0000000000
     11285        91  PMPE      H8S            39.2912066733      -26.4410205330        8.9088757467  MEMB      91              0.0000000000
     11286        91  PMPE      C29            39.7182265424      -27.2042319260        6.9120677407  MEMB      91              0.0000000000
     11287        91  PMPE      H9R            39.1064804527      -28.0959271381        6.7272284425  MEMB      91              0.0000000000
     11288        91  PMPE      C217           40.6305035754      -26.7348569701        5.7989819694  MEMB      91              0.0000000000
     11289        91  PMPE      H17R           40.6426551146      -27.3613432355        4.9173496551  MEMB      91              0.0000000000
     11290        91  PMPE      H17S           41.3870910481      -26.0398725669        6.0239964689  MEMB      91              0.0000000000
     11291        91  PMPE      C210           39.2826035642      -26.0617065148        6.0519671442  MEMB      91              0.0000000000
     11292        91  PMPE      H10R           38.6573879299      -26.2347209826        5.1641692207  MEMB      91              0.0000000000
     11293        91  PMPE      C211           39.1529425159      -24.7474943262        6.8274534923  MEMB      91              0.0000000000
     11294        91  PMPE      H11R           40.1299884048      -24.1830776764        6.8033708879  MEMB      91              0.0000000000
     11295        91  PMPE      H11S           38.7945601593      -24.7206485684        7.8492268978  MEMB      91              0.0000000000
     11296        91  PMPE      C212           37.8643657488      -24.0659740000        6.3636953249  MEMB      91              0.0000000000
     11297        91  PMPE      H12R           37.4286858182      -23.1662753066        6.8359598884  MEMB      91              0.0000000000
     11298        91  PMPE      H12S           37.3428094587      -24.5281061045        5.5206407512  MEMB      91              0.0000000000
     11299        91  PMPE      C213           38.3036388682      -23.2965309236        5.3669363021  MEMB      91              0.0000000000
     11300        91  PMPE      H13R           38.7172807348      -24.0222493262        4.6225068668  MEMB      91              0.0000000000
     11301        91  PMPE      H13S           39.3720828468      -23.4281437123        5.3333433681  MEMB      91              0.0000000000
     11302        91  PMPE      C214           37.3579267174      -22.1092583452        4.8787411593  MEMB      91              0.0000000000
     11303        91  PMPE      H14R           38.0500453370      -21.2964461554        4.7729369815  MEMB      91              0.0000000000
     11304        91  PMPE      H14S           37.3836243034      -21.1429348606        5.3876914092  MEMB      91              0.0000000000
     11305        91  PMPE      C215           36.3792833825      -22.3066475246        3.5343902263  MEMB      91              0.0000000000
     11306        91  PMPE      H15R           35.5749784707      -21.5699608221        3.2911291783  MEMB      91              0.0000000000
     11307        91  PMPE      H15S           35.8326873692      -22.9358097901        4.2083845055  MEMB      91              0.0000000000
     11308        91  PMPE      C216           36.5931828677      -22.6329364109        1.8977270205  MEMB      91              0.0000000000
     11309        91  PMPE      H16R           35.6450308914      -22.7305872007        1.3261346874  MEMB      91              0.0000000000
     11310        91  PMPE      H16S           37.0100621330      -21.9520001742        1.1444979855  MEMB      91              0.0000000000
     11311        91  PMPE      H16T           37.1457904762      -23.5947562004        1.8558356541  MEMB      91              0.0000000000
     11312        91  PMPE      C33            35.9089633179      -25.2865839825       11.8795705382  MEMB      91              0.0000000000
     11313        91  PMPE      H3X            36.7930435448      -25.4376967908       12.5340671794  MEMB      91              0.0000000000
     11314        91  PMPE      H3Y            35.7015067549      -24.2246060051       11.9421479395  MEMB      91              0.0000000000
     11315        91  PMPE      C34            36.1200019467      -25.7226282527       10.4778541464  MEMB      91              0.0000000000
     11316        91  PMPE      H4X            36.1965701536      -26.8371757205       10.4809452601  MEMB      91              0.0000000000
     11317        91  PMPE      H4Y            37.0603202317      -25.2903081365       10.0723635009  MEMB      91              0.0000000000
     11318        91  PMPE      C35            35.0053573859      -25.3555954168        9.5298294421  MEMB      91              0.0000000000
     11319        91  PMPE      H5X            34.7813163346      -24.2600986248        9.5185691081  MEMB      91              0.0000000000
     11320        91  PMPE      H5Y            34.0668492350      -25.9094561797        9.7586234775  MEMB      91              0.0000000000
     11321        91  PMPE      C36            35.5972687162      -25.8909512180        8.2603581539  MEMB      91              0.0000000000
     11322        91  PMPE      H6X            35.8472740499      -26.9648515299        8.3231175728  MEMB      91              0.0000000000
     11323        91  PMPE      H6Y            36.4236683966      -25.2441502789        7.8883186827  MEMB      91              0.0000000000
     11324        91  PMPE      C37            34.7334945316      -25.8761495918        7.1398924676  MEMB      91              0.0000000000
     11325        91  PMPE      H7X            34.6949089915      -24.7609186368        7.0410814238  MEMB      91              0.0000000000
     11326        91  PMPE      H7Y            33.7343975127      -26.3681895731        7.2860029891  MEMB      91              0.0000000000
     11327        91  PMPE      C38            35.4621814217      -26.1567390186        5.8804673900  MEMB      91              0.0000000000
     11328        91  PMPE      H8X            35.8984578885      -25.2926837385        5.4817026370  MEMB      91              0.0000000000
     11329        91  PMPE      H8Y            34.9201593063      -25.5474163529        5.2002645100  MEMB      91              0.0000000000
     11330        91  PMPE      C39            35.3678114903      -27.6230022260        5.4185422239  MEMB      91              0.0000000000
     11331        91  PMPE      H9X            34.4187517433      -28.1437467961        5.6750684898  MEMB      91              0.0000000000
     11332        91  PMPE      H9Y            36.0756737637      -28.0623261773        6.1285293292  MEMB      91              0.0000000000
     11333        91  PMPE      C310           35.6270420538      -28.0692484305        3.9832646497  MEMB      91              0.0000000000
     11334        91  PMPE      H10X           35.2015757080      -27.7207130359        3.0449980198  MEMB      91              0.0000000000
     11335        91  PMPE      H10Y           35.1794753257      -29.0657251678        3.8490982626  MEMB      91              0.0000000000
     11336        91  PMPE      C311           37.0560557948      -27.8105853906        3.6874985346  MEMB      91              0.0000000000
     11337        91  PMPE      H11X           37.5479091915      -27.9012268144        4.6727376113  MEMB      91              0.0000000000
     11338        91  PMPE      H11Y           37.2775144247      -26.7890959710        3.2981248844  MEMB      91              0.0000000000
     11339        91  PMPE      C312           37.4195556713      -28.8397537372        2.6763486673  MEMB      91              0.0000000000
     11340        91  PMPE      H12X           36.7377108751      -28.8017909727        1.7942989084  MEMB      91              0.0000000000
     11341        91  PMPE      H12Y           37.2269535931      -29.8065342270        3.1994026106  MEMB      91              0.0000000000
     11342        91  PMPE      C313           38.8783446756      -28.7088228115        2.3041420675  MEMB      91              0.0000000000
     11343        91  PMPE      H13X           39.1258281888      -29.6554208737        1.7875554094  MEMB      91              0.0000000000
     11344        91  PMPE      H13Y           39.4485641980      -28.6707218951        3.2636446800  MEMB      91              0.0000000000
     11345        91  PMPE      C314           39.2902790357      -27.4983688961        1.4345231373  MEMB      91              0.0000000000
     11346        91  PMPE      H14X           40.3805992336      -27.6271519176        1.2402508324  MEMB      91              0.0000000000
     11347        91  PMPE      H14Y           39.1534716452      -26.5459228799        1.9926944528  MEMB      91              0.0000000000
     11348        91  PMPE      C315           38.5823920010      -27.3089890943        0.0809759569  MEMB      91              0.0000000000
     11349        91  PMPE      H15X           38.8746571303      -26.3209669176       -0.3381338745  MEMB      91              0.0000000000
     11350        91  PMPE      H15Y           37.4788926400      -27.3152292672        0.1895459461  MEMB      91              0.0000000000
     11351        91  PMPE      C316           38.9532008949      -28.3293450132       -0.9597012533  MEMB      91              0.0000000000
     11352        91  PMPE      H16X           38.6609084298      -29.3126455480       -0.6115976827  MEMB      91              0.0000000000
     11353        91  PMPE      H16Y           40.0316014348      -28.3515374530       -1.1162931893  MEMB      91              0.0000000000
     11354        91  PMPE      H16Z           38.4551015838      -28.1174384437       -1.9277902174  MEMB      91              0.0000000000
     11355        92  PMPE      N             -40.6972581002       21.1800979526       21.7430735597  MEMB      92              0.0000000000
     11356        92  PMPE      HN1           -40.0109144548       21.9680885178       21.7942463443  MEMB      92              0.0000000000
     11357        92  PMPE      HN2           -41.6002013254       21.6195133123       21.5070337643  MEMB      92              0.0000000000
     11358        92  PMPE      HN3           -40.6763130338       20.7172199055       22.6743471365  MEMB      92              0.0000000000
     11359        92  PMPE      C12           -40.1139026504       20.2147365167       20.7262770070  MEMB      92              0.0000000000
     11360        92  PMPE      H12A          -40.6727269551       19.2717737539       20.8129527127  MEMB      92              0.0000000000
     11361        92  PMPE      H12B          -39.0373384472       20.0447722149       20.9595201471  MEMB      92              0.0000000000
     11362        92  PMPE      C11           -40.1464682008       20.7507466451       19.3105408088  MEMB      92              0.0000000000
     11363        92  PMPE      H11A          -41.1591883330       20.6250820748       18.9026836459  MEMB      92              0.0000000000
     11364        92  PMPE      H11B          -39.4227738957       20.2054162672       18.6572557897  MEMB      92              0.0000000000
     11365        92  PMPE      P             -40.2604128729       22.9817184527       18.0956142823  MEMB      92              0.0000000000
     11366        92  PMPE      O13           -39.7510420945       24.3033321163       18.4899726508  MEMB      92              0.0000000000
     11367        92  PMPE      O14           -41.7093180295       22.8067838802       17.8799039744  MEMB      92              0.0000000000
     11368        92  PMPE      O11           -39.4589228418       22.2020249905       16.9882045583  MEMB      92              0.0000000000
     11369        92  PMPE      O12           -39.8337225607       22.1152872459       19.3604629912  MEMB      92              0.0000000000
     11370        92  PMPE      C1            -40.1025381215       21.6251270163       15.8381825419  MEMB      92              0.0000000000
     11371        92  PMPE      HA            -41.1437991270       21.3407428578       16.0025937884  MEMB      92              0.0000000000
     11372        92  PMPE      HB            -39.5147832402       20.7245029103       15.5483206371  MEMB      92              0.0000000000
     11373        92  PMPE      C2            -40.0770586718       22.5701637214       14.6412245911  MEMB      92              0.0000000000
     11374        92  PMPE      HS            -40.2065336373       22.0390339253       13.6704058369  MEMB      92              0.0000000000
     11375        92  PMPE      O21           -38.7547265645       23.0342475685       14.7912793216  MEMB      92              0.0000000000
     11376        92  PMPE      C21           -37.8241456505       22.1499632551       14.3932817812  MEMB      92              0.0000000000
     11377        92  PMPE      O22           -37.9994461422       21.2314953016       13.6295389599  MEMB      92              0.0000000000
     11378        92  PMPE      C22           -36.3918356727       22.7202274640       14.6485955236  MEMB      92              0.0000000000
     11379        92  PMPE      H2R           -35.6941835662       22.1785484745       14.0443220578  MEMB      92              0.0000000000
     11380        92  PMPE      H2S           -36.2436100374       22.5930254668       15.7721522195  MEMB      92              0.0000000000
     11381        92  PMPE      C3            -41.1967467148       23.6754908645       14.7120299932  MEMB      92              0.0000000000
     11382        92  PMPE      HX            -40.8734718114       24.4805265549       15.4045316534  MEMB      92              0.0000000000
     11383        92  PMPE      HY            -42.0967274811       23.1895916009       15.1622616518  MEMB      92              0.0000000000
     11384        92  PMPE      O31           -41.5180140415       24.2669796756       13.4308789792  MEMB      92              0.0000000000
     11385        92  PMPE      C31           -42.0983998486       23.4455274544       12.5699617992  MEMB      92              0.0000000000
     11386        92  PMPE      O32           -42.6003851821       22.3679729845       12.8296228181  MEMB      92              0.0000000000
     11387        92  PMPE      C32           -42.0461023512       24.0818247066       11.1911584241  MEMB      92              0.0000000000
     11388        92  PMPE      H2X           -41.2023185070       24.8060934005       11.1276759738  MEMB      92              0.0000000000
     11389        92  PMPE      H2Y           -42.9924657183       24.6373834111       11.0450040142  MEMB      92              0.0000000000
     11390        92  PMPE      C23           -35.6476656082       24.0671325173       13.9346083184  MEMB      92              0.0000000000
     11391        92  PMPE      H3R           -34.8674352203       24.1929599006       14.6439156653  MEMB      92              0.0000000000
     11392        92  PMPE      H3S           -36.5323464503       24.0296593734       14.6940468041  MEMB      92              0.0000000000
     11393        92  PMPE      C24           -35.7678535293       25.7464313158       12.6348885096  MEMB      92              0.0000000000
     11394        92  PMPE      H4R           -36.3442429416       26.6977705591       12.8058097490  MEMB      92              0.0000000000
     11395        92  PMPE      H4S           -36.7630559835       26.1976045267       12.1554649831  MEMB      92              0.0000000000
     11396        92  PMPE      C25           -35.0742327005       25.7162371435       11.5345501234  MEMB      92              0.0000000000
     11397        92  PMPE      H5R           -35.1625392825       24.9505059913       12.2838001868  MEMB      92              0.0000000000
     11398        92  PMPE      H5S           -34.0696276838       25.6943939611       11.8754930592  MEMB      92              0.0000000000
     11399        92  PMPE      C26           -35.6671048444       25.4980692444       10.0194226802  MEMB      92              0.0000000000
     11400        92  PMPE      H6R           -34.6059682944       25.4616914829        9.7477328918  MEMB      92              0.0000000000
     11401        92  PMPE      H6S           -35.8658780010       26.4484524838        9.7383460988  MEMB      92              0.0000000000
     11402        92  PMPE      C27           -36.8028578145       24.4796735046        9.1775711708  MEMB      92              0.0000000000
     11403        92  PMPE      H7R           -37.8715697065       24.3756824368        9.3807656986  MEMB      92              0.0000000000
     11404        92  PMPE      H7S           -36.8833318746       23.3773092325        9.0781875669  MEMB      92              0.0000000000
     11405        92  PMPE      C28           -37.1468546777       24.9448492943        7.8929941658  MEMB      92              0.0000000000
     11406        92  PMPE      H8R           -36.0356040555       25.0013096881        7.6963510411  MEMB      92              0.0000000000
     11407        92  PMPE      H8S           -37.6979959257       25.8749640168        8.1083741768  MEMB      92              0.0000000000
     11408        92  PMPE      C29           -38.0277318512       24.0427228543        7.0695380544  MEMB      92              0.0000000000
     11409        92  PMPE      H9R           -38.6463693178       23.2509243508        7.5512866159  MEMB      92              0.0000000000
     11410        92  PMPE      C217          -37.0071639182       23.1697305568        6.5673880877  MEMB      92              0.0000000000
     11411        92  PMPE      H17R          -37.3113434858       22.1598110507        6.3544629955  MEMB      92              0.0000000000
     11412        92  PMPE      H17S          -35.9644182056       23.5021778238        6.6678610857  MEMB      92              0.0000000000
     11413        92  PMPE      C210          -37.7643752218       23.9777023771        5.5804817864  MEMB      92              0.0000000000
     11414        92  PMPE      H10R          -38.4657265217       23.4402928372        4.9702891100  MEMB      92              0.0000000000
     11415        92  PMPE      C211          -36.9207997988       25.0115670525        4.9431857531  MEMB      92              0.0000000000
     11416        92  PMPE      H11R          -36.2109086996       25.1773225360        5.7501630563  MEMB      92              0.0000000000
     11417        92  PMPE      H11S          -37.5169145151       25.9239048966        4.7841725286  MEMB      92              0.0000000000
     11418        92  PMPE      C212          -36.1526860004       24.7099316968        3.6518492830  MEMB      92              0.0000000000
     11419        92  PMPE      H12R          -35.6142838007       23.7864807905        3.7068847685  MEMB      92              0.0000000000
     11420        92  PMPE      H12S          -35.4108161127       25.4907824196        3.4514878802  MEMB      92              0.0000000000
     11421        92  PMPE      C213          -36.9641138865       24.6547942258        2.3961294307  MEMB      92              0.0000000000
     11422        92  PMPE      H13R          -37.5837978436       25.5777898319        2.3822062549  MEMB      92              0.0000000000
     11423        92  PMPE      H13S          -37.6033242236       23.7530237081        2.4335962835  MEMB      92              0.0000000000
     11424        92  PMPE      C214          -36.0922276038       24.6039735504        1.1424669493  MEMB      92              0.0000000000
     11425        92  PMPE      H14R          -35.3708889754       23.7617797863        1.1288422860  MEMB      92              0.0000000000
     11426        92  PMPE      H14S          -35.5995106425       25.6082995019        1.0227058682  MEMB      92              0.0000000000
     11427        92  PMPE      C215          -36.9659168935       24.3899023210       -0.0358716441  MEMB      92              0.0000000000
     11428        92  PMPE      H15R          -37.6394770770       25.1782789438        0.2313624039  MEMB      92              0.0000000000
     11429        92  PMPE      H15S          -37.5323163858       23.4525279435       -0.0582585752  MEMB      92              0.0000000000
     11430        92  PMPE      C216          -36.3745262550       24.5931660151       -1.3700236548  MEMB      92              0.0000000000
     11431        92  PMPE      H16R          -36.1751862033       25.6048296231       -1.6839968090  MEMB      92              0.0000000000
     11432        92  PMPE      H16S          -35.4464759003       23.9699147477       -1.4860517085  MEMB      92              0.0000000000
     11433        92  PMPE      H16T          -37.1318390405       24.4437968345       -2.1615890575  MEMB      92              0.0000000000
     11434        92  PMPE      C33           -41.8872262440       23.0132116734       10.1031108661  MEMB      92              0.0000000000
     11435        92  PMPE      H3X           -42.9015114962       22.6181788894        9.8643448101  MEMB      92              0.0000000000
     11436        92  PMPE      H3Y           -41.2752906651       22.1503394986       10.4485121166  MEMB      92              0.0000000000
     11437        92  PMPE      C34           -41.1049140579       23.5785341076        8.9242548239  MEMB      92              0.0000000000
     11438        92  PMPE      H4X           -40.9033888810       22.7671199807        8.1804933091  MEMB      92              0.0000000000
     11439        92  PMPE      H4Y           -40.1671749332       24.0369207554        9.2762407181  MEMB      92              0.0000000000
     11440        92  PMPE      C35           -41.8140602533       24.6519321156        8.1874422953  MEMB      92              0.0000000000
     11441        92  PMPE      H5X           -41.1269896471       24.9597688209        7.3699178418  MEMB      92              0.0000000000
     11442        92  PMPE      H5Y           -42.0706467586       25.5893352812        8.7388072203  MEMB      92              0.0000000000
     11443        92  PMPE      C36           -43.0464950624       23.9553819463        7.7409776169  MEMB      92              0.0000000000
     11444        92  PMPE      H6X           -43.8362303952       23.9094392057        8.5495939204  MEMB      92              0.0000000000
     11445        92  PMPE      H6Y           -42.9828406845       23.0242505661        7.1498860077  MEMB      92              0.0000000000
     11446        92  PMPE      C37           -43.5539585063       24.8400009869        6.8078580144  MEMB      92              0.0000000000
     11447        92  PMPE      H7X           -44.1600295084       25.4133497859        7.5675634340  MEMB      92              0.0000000000
     11448        92  PMPE      H7Y           -44.5961116691       24.6695796401        6.7129778042  MEMB      92              0.0000000000
     11449        92  PMPE      C38           -42.5469351513       25.4526383564        5.6669152729  MEMB      92              0.0000000000
     11450        92  PMPE      H8X           -41.7124161642       26.0888628586        5.9663035171  MEMB      92              0.0000000000
     11451        92  PMPE      H8Y           -42.8191810836       26.1925280209        4.8797675413  MEMB      92              0.0000000000
     11452        92  PMPE      C39           -42.1823821072       24.3830067993        4.7221018078  MEMB      92              0.0000000000
     11453        92  PMPE      H9X           -43.1759256330       23.9553885538        4.6832299577  MEMB      92              0.0000000000
     11454        92  PMPE      H9Y           -41.5849693907       23.6843256347        5.2777388498  MEMB      92              0.0000000000
     11455        92  PMPE      C310          -41.6747365844       24.8114139552        3.3488366988  MEMB      92              0.0000000000
     11456        92  PMPE      H10X          -40.8366080299       25.5315149938        3.4477197802  MEMB      92              0.0000000000
     11457        92  PMPE      H10Y          -42.5214577856       25.3535109732        2.9212145048  MEMB      92              0.0000000000
     11458        92  PMPE      C311          -41.3521616609       23.6211184141        2.4445672610  MEMB      92              0.0000000000
     11459        92  PMPE      H11X          -40.8444435286       24.0038124094        1.5349975287  MEMB      92              0.0000000000
     11460        92  PMPE      H11Y          -42.2647776804       23.1027013263        2.0784387526  MEMB      92              0.0000000000
     11461        92  PMPE      C312          -40.4319109146       22.6418641259        3.1761054608  MEMB      92              0.0000000000
     11462        92  PMPE      H12X          -40.8602763540       22.3402188376        4.1500289550  MEMB      92              0.0000000000
     11463        92  PMPE      H12Y          -39.5077409189       23.2281664553        3.3262059286  MEMB      92              0.0000000000
     11464        92  PMPE      C313          -40.0462226869       21.3478495693        2.4860191116  MEMB      92              0.0000000000
     11465        92  PMPE      H13X          -40.9459637148       20.6945457023        2.3789855992  MEMB      92              0.0000000000
     11466        92  PMPE      H13Y          -39.2615817024       20.8116762611        3.0583069447  MEMB      92              0.0000000000
     11467        92  PMPE      C314          -39.4322832061       21.6084110579        1.1603802088  MEMB      92              0.0000000000
     11468        92  PMPE      H14X          -38.8615568165       20.7246966428        0.8110540267  MEMB      92              0.0000000000
     11469        92  PMPE      H14Y          -38.7640365326       22.4823782690        1.0826253339  MEMB      92              0.0000000000
     11470        92  PMPE      C315          -40.5338160119       21.8058043124        0.2102788940  MEMB      92              0.0000000000
     11471        92  PMPE      H15X          -41.1976932704       22.6730769553        0.2207631232  MEMB      92              0.0000000000
     11472        92  PMPE      H15Y          -41.1815208270       20.8811190369        0.2452028178  MEMB      92              0.0000000000
     11473        92  PMPE      C316          -39.8373031869       22.1267505491       -1.0362940092  MEMB      92              0.0000000000
     11474        92  PMPE      H16X          -38.8955456499       21.9759524563       -1.5323434611  MEMB      92              0.0000000000
     11475        92  PMPE      H16Y          -40.6239691801       22.3238639679       -1.7633772838  MEMB      92              0.0000000000
     11476        92  PMPE      H16Z          -39.6584043890       21.0451592480       -0.9587002882  MEMB      92              0.0000000000
     11477        93  PMPE      N             -32.6707194785      -28.9246275521       20.0976922133  MEMB      93              0.0000000000
     11478        93  PMPE      HN1           -32.9247516906      -29.9212621870       19.8828987899  MEMB      93              0.0000000000
     11479        93  PMPE      HN2           -32.5913915233      -28.3877614826       19.2138953807  MEMB      93              0.0000000000
     11480        93  PMPE      HN3           -31.7886678633      -28.9005580436       20.6440346638  MEMB      93              0.0000000000
     11481        93  PMPE      C12           -33.7516656371      -28.3278619157       20.9537479683  MEMB      93              0.0000000000
     11482        93  PMPE      H12A          -33.3376938132      -27.4036655966       21.3953385708  MEMB      93              0.0000000000
     11483        93  PMPE      H12B          -33.9718496358      -29.0717731230       21.7510902272  MEMB      93              0.0000000000
     11484        93  PMPE      C11           -35.0141989748      -27.9915417285       20.1605735779  MEMB      93              0.0000000000
     11485        93  PMPE      H11A          -34.7980564406      -27.2319041069       19.3775681371  MEMB      93              0.0000000000
     11486        93  PMPE      H11B          -35.8041634949      -27.6037876969       20.8385929934  MEMB      93              0.0000000000
     11487        93  PMPE      P             -36.2207634756      -29.2417266850       18.2298226829  MEMB      93              0.0000000000
     11488        93  PMPE      O13           -36.9296544815      -27.9757525216       17.9866687907  MEMB      93              0.0000000000
     11489        93  PMPE      O14           -36.9630265634      -30.4748482599       18.3543946811  MEMB      93              0.0000000000
     11490        93  PMPE      O11           -35.0603819703      -29.4324443167       17.1816699447  MEMB      93              0.0000000000
     11491        93  PMPE      O12           -35.4878080495      -29.1676220573       19.5905292560  MEMB      93              0.0000000000
     11492        93  PMPE      C1            -34.3990854830      -30.7042304623       17.1292338673  MEMB      93              0.0000000000
     11493        93  PMPE      HA            -34.9541510436      -31.5426496850       17.6280825597  MEMB      93              0.0000000000
     11494        93  PMPE      HB            -33.4400894003      -30.5893813327       17.6643936588  MEMB      93              0.0000000000
     11495        93  PMPE      C2            -34.1418842547      -31.1613632521       15.6509627659  MEMB      93              0.0000000000
     11496        93  PMPE      HS            -33.3105088968      -31.9142677638       15.6583143887  MEMB      93              0.0000000000
     11497        93  PMPE      O21           -33.9696984132      -30.0482223613       14.7567779233  MEMB      93              0.0000000000
     11498        93  PMPE      C21           -32.7823187171      -29.6574344140       14.9563552758  MEMB      93              0.0000000000
     11499        93  PMPE      O22           -31.9509932594      -30.1851327499       15.6407768075  MEMB      93              0.0000000000
     11500        93  PMPE      C22           -32.5045950263      -28.3826768574       14.4197986998  MEMB      93              0.0000000000
     11501        93  PMPE      H2R           -31.8457113102      -27.8463359705       15.1247516897  MEMB      93              0.0000000000
     11502        93  PMPE      H2S           -33.4745665747      -27.8313936616       14.2798371742  MEMB      93              0.0000000000
     11503        93  PMPE      C3            -35.2991404954      -31.9089074297       15.0664443990  MEMB      93              0.0000000000
     11504        93  PMPE      HX            -36.0061841410      -31.2016054830       15.5239396915  MEMB      93              0.0000000000
     11505        93  PMPE      HY            -35.3792054492      -32.9108495637       15.5413557381  MEMB      93              0.0000000000
     11506        93  PMPE      O31           -35.2787082117      -31.9441703706       13.6002966052  MEMB      93              0.0000000000
     11507        93  PMPE      C31           -36.1397910295      -31.1484961939       12.9376368053  MEMB      93              0.0000000000
     11508        93  PMPE      O32           -36.9023382346      -30.3659395205       13.4447999980  MEMB      93              0.0000000000
     11509        93  PMPE      C32           -36.1372548441      -31.4401072396       11.4510687796  MEMB      93              0.0000000000
     11510        93  PMPE      H2X           -37.0759162100      -31.0927088583       10.9648273754  MEMB      93              0.0000000000
     11511        93  PMPE      H2Y           -36.0465176882      -32.5383301346       11.2997368726  MEMB      93              0.0000000000
     11512        93  PMPE      C23           -31.8446728232      -28.7076964312       13.0957550092  MEMB      93              0.0000000000
     11513        93  PMPE      H3R           -32.1132276428      -27.6779826491       12.9790534320  MEMB      93              0.0000000000
     11514        93  PMPE      H3S           -32.5272922090      -29.1167552891       12.3291672185  MEMB      93              0.0000000000
     11515        93  PMPE      C24           -30.2975596461      -28.9699528140       12.7549613393  MEMB      93              0.0000000000
     11516        93  PMPE      H4R           -30.2027430258      -29.9663038413       13.1591193716  MEMB      93              0.0000000000
     11517        93  PMPE      H4S           -29.3487830599      -28.8880709573       13.2819201086  MEMB      93              0.0000000000
     11518        93  PMPE      C25           -29.7648973048      -28.6819388072       11.2610460993  MEMB      93              0.0000000000
     11519        93  PMPE      H5R           -28.6764018242      -28.8563416374       11.4397848934  MEMB      93              0.0000000000
     11520        93  PMPE      H5S           -29.3169355273      -27.8081182300       10.8439339392  MEMB      93              0.0000000000
     11521        93  PMPE      C26           -30.7066028379      -28.9957697005        9.8698563557  MEMB      93              0.0000000000
     11522        93  PMPE      H6R           -30.2185653793      -28.3611415820        9.1036560643  MEMB      93              0.0000000000
     11523        93  PMPE      H6S           -31.6695610963      -28.7805179763       10.3365213315  MEMB      93              0.0000000000
     11524        93  PMPE      C27           -31.2797526501      -30.3320046697        9.0472619051  MEMB      93              0.0000000000
     11525        93  PMPE      H7R           -31.9974724130      -31.0927788580        9.4745514020  MEMB      93              0.0000000000
     11526        93  PMPE      H7S           -30.5366913196      -31.0777944732        9.0838176009  MEMB      93              0.0000000000
     11527        93  PMPE      C28           -31.6566833383      -30.4514267917        7.7600344266  MEMB      93              0.0000000000
     11528        93  PMPE      H8R           -31.0228755916      -29.5856361806        7.5506865509  MEMB      93              0.0000000000
     11529        93  PMPE      H8S           -32.7388978868      -30.3219652638        7.9717914293  MEMB      93              0.0000000000
     11530        93  PMPE      C29           -31.2818292958      -31.9319170408        7.5463346682  MEMB      93              0.0000000000
     11531        93  PMPE      H9R           -31.1201107248      -32.5649431859        8.3993685858  MEMB      93              0.0000000000
     11532        93  PMPE      C217          -29.9826991360      -32.3723334652        7.0172919741  MEMB      93              0.0000000000
     11533        93  PMPE      H17R          -29.2150362569      -33.0110704453        7.4363232645  MEMB      93              0.0000000000
     11534        93  PMPE      H17S          -29.6220381869      -32.2008213670        6.1371255674  MEMB      93              0.0000000000
     11535        93  PMPE      C210          -31.1998579131      -32.3449285446        6.2101078533  MEMB      93              0.0000000000
     11536        93  PMPE      H10R          -31.6708923656      -33.2531318638        5.9103292460  MEMB      93              0.0000000000
     11537        93  PMPE      C211          -31.4988012663      -31.1305147783        5.4067533194  MEMB      93              0.0000000000
     11538        93  PMPE      H11R          -31.2794105636      -31.3002575494        4.3792708239  MEMB      93              0.0000000000
     11539        93  PMPE      H11S          -30.8626994087      -30.2419245843        5.5749572980  MEMB      93              0.0000000000
     11540        93  PMPE      C212          -32.9938673058      -31.1725091053        5.3646496098  MEMB      93              0.0000000000
     11541        93  PMPE      H12R          -33.4070501641      -30.6984511494        6.2576796146  MEMB      93              0.0000000000
     11542        93  PMPE      H12S          -33.2844563712      -32.2539348693        5.4075743670  MEMB      93              0.0000000000
     11543        93  PMPE      C213          -33.5048872574      -30.5976166426        4.0718138735  MEMB      93              0.0000000000
     11544        93  PMPE      H13R          -33.0062325690      -29.6274852630        3.8424922422  MEMB      93              0.0000000000
     11545        93  PMPE      H13S          -34.5930660385      -30.4581287180        4.1840453305  MEMB      93              0.0000000000
     11546        93  PMPE      C214          -33.2753110395      -31.5578164487        2.9144486790  MEMB      93              0.0000000000
     11547        93  PMPE      H14R          -33.7807960854      -32.5264312397        3.1128671066  MEMB      93              0.0000000000
     11548        93  PMPE      H14S          -32.2061608746      -31.7532921984        2.8826975628  MEMB      93              0.0000000000
     11549        93  PMPE      C215          -33.6400564699      -30.9680406897        1.5666360531  MEMB      93              0.0000000000
     11550        93  PMPE      H15R          -33.2095116404      -31.6178018625        0.7637994218  MEMB      93              0.0000000000
     11551        93  PMPE      H15S          -33.1572165002      -29.9758291281        1.4523867935  MEMB      93              0.0000000000
     11552        93  PMPE      C216          -35.1523644278      -30.8313341673        1.4336410129  MEMB      93              0.0000000000
     11553        93  PMPE      H16R          -35.5866385914      -30.0634046545        2.0885131981  MEMB      93              0.0000000000
     11554        93  PMPE      H16S          -35.4209703706      -30.6341012428        0.3724160679  MEMB      93              0.0000000000
     11555        93  PMPE      H16T          -35.6151850011      -31.7954653312        1.7478608728  MEMB      93              0.0000000000
     11556        93  PMPE      C33           -34.9287706871      -30.7361314145       10.8504279095  MEMB      93              0.0000000000
     11557        93  PMPE      H3X           -34.6836972245      -31.3150393381        9.9359798471  MEMB      93              0.0000000000
     11558        93  PMPE      H3Y           -34.0784756202      -30.7990027190       11.5729307637  MEMB      93              0.0000000000
     11559        93  PMPE      C34           -35.0957350525      -29.2574274445       10.4608487253  MEMB      93              0.0000000000
     11560        93  PMPE      H4X           -34.0489656825      -28.8800633854       10.5076475787  MEMB      93              0.0000000000
     11561        93  PMPE      H4Y           -35.7025188952      -28.6705839238       11.1866266063  MEMB      93              0.0000000000
     11562        93  PMPE      C35           -35.5384013849      -29.0756402370        9.0001249504  MEMB      93              0.0000000000
     11563        93  PMPE      H5X           -36.5423531044      -29.5052204484        8.8322629266  MEMB      93              0.0000000000
     11564        93  PMPE      H5Y           -34.8369787311      -29.6625392852        8.3661613801  MEMB      93              0.0000000000
     11565        93  PMPE      C36           -35.5528517770      -27.6388733993        8.4593506723  MEMB      93              0.0000000000
     11566        93  PMPE      H6X           -34.6637518885      -27.1175124649        8.8199009033  MEMB      93              0.0000000000
     11567        93  PMPE      H6Y           -36.3990546401      -27.0520463642        8.8614125029  MEMB      93              0.0000000000
     11568        93  PMPE      C37           -35.6253998339      -27.6607361046        6.9262685639  MEMB      93              0.0000000000
     11569        93  PMPE      H7X           -36.4907615432      -28.2702430555        6.5912958705  MEMB      93              0.0000000000
     11570        93  PMPE      H7Y           -34.6954761987      -28.1377171196        6.5390707339  MEMB      93              0.0000000000
     11571        93  PMPE      C38           -35.8959842829      -26.3268406652        6.2462330057  MEMB      93              0.0000000000
     11572        93  PMPE      H8X           -35.2314619362      -25.5463338518        6.5808850867  MEMB      93              0.0000000000
     11573        93  PMPE      H8Y           -36.7439102718      -25.8035143694        6.6726452435  MEMB      93              0.0000000000
     11574        93  PMPE      C39           -35.9449758684      -26.4835411566        4.7050875958  MEMB      93              0.0000000000
     11575        93  PMPE      H9X           -36.0182879599      -25.5031011096        4.2139850951  MEMB      93              0.0000000000
     11576        93  PMPE      H9Y           -36.8600953955      -27.0482246497        4.4739216915  MEMB      93              0.0000000000
     11577        93  PMPE      C310          -34.8889805814      -27.3470631766        3.9866877349  MEMB      93              0.0000000000
     11578        93  PMPE      H10X          -35.0960066546      -28.4117544665        4.1301757267  MEMB      93              0.0000000000
     11579        93  PMPE      H10Y          -34.0013659392      -27.4697202619        4.5802878016  MEMB      93              0.0000000000
     11580        93  PMPE      C311          -34.7367600951      -26.9935841983        2.4775077970  MEMB      93              0.0000000000
     11581        93  PMPE      H11X          -35.5426390454      -26.3140303236        2.1764164615  MEMB      93              0.0000000000
     11582        93  PMPE      H11Y          -34.7674387416      -27.9476617974        1.9011087070  MEMB      93              0.0000000000
     11583        93  PMPE      C312          -33.4662990048      -26.2796526875        2.0397849877  MEMB      93              0.0000000000
     11584        93  PMPE      H12X          -32.8247848958      -27.1574315210        2.1750703139  MEMB      93              0.0000000000
     11585        93  PMPE      H12Y          -33.1836399338      -25.4275098611        2.6977332282  MEMB      93              0.0000000000
     11586        93  PMPE      C313          -33.2999974688      -25.5600438175        0.7453175702  MEMB      93              0.0000000000
     11587        93  PMPE      H13X          -32.4686043894      -24.8106789714        0.8439945352  MEMB      93              0.0000000000
     11588        93  PMPE      H13Y          -34.2137298214      -24.9735447439        0.6110362713  MEMB      93              0.0000000000
     11589        93  PMPE      C314          -32.9933688041      -26.4583161451       -0.4128605404  MEMB      93              0.0000000000
     11590        93  PMPE      H14X          -33.8102731328      -27.1906605786       -0.5678552031  MEMB      93              0.0000000000
     11591        93  PMPE      H14Y          -32.0586363049      -27.0366201160       -0.2422640903  MEMB      93              0.0000000000
     11592        93  PMPE      C315          -32.8717142063      -25.5561416231       -1.6130971226  MEMB      93              0.0000000000
     11593        93  PMPE      H15X          -32.5205669595      -26.2026329363       -2.4113560723  MEMB      93              0.0000000000
     11594        93  PMPE      H15Y          -32.1435580568      -24.7307735188       -1.4102155076  MEMB      93              0.0000000000
     11595        93  PMPE      C316          -34.2071434643      -25.0709444217       -2.1393265677  MEMB      93              0.0000000000
     11596        93  PMPE      H16X          -34.7820438322      -24.5261723382       -1.3815455928  MEMB      93              0.0000000000
     11597        93  PMPE      H16Y          -34.8439186325      -25.9422751659       -2.3776610116  MEMB      93              0.0000000000
     11598        93  PMPE      H16Z          -34.0519340833      -24.4494601729       -3.0475146557  MEMB      93              0.0000000000
     11599        94  POPE      N              25.0392407291      -35.8646536791       18.9863772070  MEMB      94              0.0000000000
     11600        94  POPE      HN1            25.7780456882      -36.4914856011       18.5841267072  MEMB      94              0.0000000000
     11601        94  POPE      HN2            24.5255415047      -35.3353386282       18.2555651718  MEMB      94              0.0000000000
     11602        94  POPE      HN3            25.4421163218      -35.2393518458       19.7073277914  MEMB      94              0.0000000000
     11603        94  POPE      C12            24.0554445504      -36.7322050124       19.6894227745  MEMB      94              0.0000000000
     11604        94  POPE      H12A           23.1150951037      -36.8113283703       19.1062466705  MEMB      94              0.0000000000
     11605        94  POPE      H12B           23.8383937767      -36.2775588224       20.6769925107  MEMB      94              0.0000000000
     11606        94  POPE      C11            24.6538243833      -38.1126226007       19.8569257924  MEMB      94              0.0000000000
     11607        94  POPE      H11A           23.9256806712      -38.5495855902       20.5700966296  MEMB      94              0.0000000000
     11608        94  POPE      H11B           25.6162007137      -38.0922055299       20.4301866442  MEMB      94              0.0000000000
     11609        94  POPE      P              25.5220603171      -40.2419908629       18.5024915780  MEMB      94              0.0000000000
     11610        94  POPE      O13            24.6540736072      -41.3450561853       18.0367892016  MEMB      94              0.0000000000
     11611        94  POPE      O14            26.0903948026      -40.2757677046       19.8362875420  MEMB      94              0.0000000000
     11612        94  POPE      O11            26.7696620837      -40.0580594494       17.5777458143  MEMB      94              0.0000000000
     11613        94  POPE      O12            24.7146874367      -38.8098100786       18.5753428652  MEMB      94              0.0000000000
     11614        94  POPE      C1             27.1145412768      -38.7550946478       17.1821455745  MEMB      94              0.0000000000
     11615        94  POPE      HA             28.1829209786      -38.7659827161       16.8913608570  MEMB      94              0.0000000000
     11616        94  POPE      HB             27.0115731585      -38.0192809994       18.0054401089  MEMB      94              0.0000000000
     11617        94  POPE      C2             26.1756361520      -38.4139087570       16.0350468006  MEMB      94              0.0000000000
     11618        94  POPE      HS             25.1513487863      -38.2639215589       16.4584959023  MEMB      94              0.0000000000
     11619        94  POPE      O21            26.2751850210      -39.4338767828       15.0629756852  MEMB      94              0.0000000000
     11620        94  POPE      C21            25.1468736984      -39.7205565989       14.5657648655  MEMB      94              0.0000000000
     11621        94  POPE      O22            24.0408611637      -39.5208885177       15.0375007805  MEMB      94              0.0000000000
     11622        94  POPE      C22            25.4430271607      -40.2486570932       13.1923054408  MEMB      94              0.0000000000
     11623        94  POPE      H2R            24.4715062077      -40.3802943430       12.6545774748  MEMB      94              0.0000000000
     11624        94  POPE      H2S            26.0273998570      -41.1580382227       13.4889548092  MEMB      94              0.0000000000
     11625        94  POPE      C3             26.5086406809      -37.1571295332       15.3250682841  MEMB      94              0.0000000000
     11626        94  POPE      HX             26.3282330035      -36.3476346783       16.0771403415  MEMB      94              0.0000000000
     11627        94  POPE      HY             25.8102439336      -37.0050968700       14.4547953098  MEMB      94              0.0000000000
     11628        94  POPE      O31            27.8813025398      -37.2602489801       14.8840819681  MEMB      94              0.0000000000
     11629        94  POPE      C31            28.0875469607      -36.0674099287       14.3929083561  MEMB      94              0.0000000000
     11630        94  POPE      O32            27.2648347782      -35.1753504498       14.5412642389  MEMB      94              0.0000000000
     11631        94  POPE      C32            29.3286934156      -36.1155514488       13.5361259817  MEMB      94              0.0000000000
     11632        94  POPE      H2X            29.8304960023      -36.9209474199       13.9198614045  MEMB      94              0.0000000000
     11633        94  POPE      H2Y            30.0550213797      -35.2894761589       13.6694806122  MEMB      94              0.0000000000
     11634        94  POPE      C23            26.2590243448      -39.5523125493       12.1367295204  MEMB      94              0.0000000000
     11635        94  POPE      H3R            27.3153402687      -39.6564599663       12.4409878311  MEMB      94              0.0000000000
     11636        94  POPE      H3S            25.8747604731      -38.5273229718       12.0142666855  MEMB      94              0.0000000000
     11637        94  POPE      C24            26.1100176761      -40.1333665944       10.7559688947  MEMB      94              0.0000000000
     11638        94  POPE      H4R            25.0851339541      -39.9575803889       10.3538271646  MEMB      94              0.0000000000
     11639        94  POPE      H4S            26.3481185260      -41.2153511812       10.7571811913  MEMB      94              0.0000000000
     11640        94  POPE      C25            27.0271389820      -39.4534060234        9.8001876057  MEMB      94              0.0000000000
     11641        94  POPE      H5R            26.8042600983      -38.3665350163        9.6953258136  MEMB      94              0.0000000000
     11642        94  POPE      H5S            26.8871988002      -39.9864461163        8.8629848418  MEMB      94              0.0000000000
     11643        94  POPE      C26            28.4538461730      -39.8809510316        9.9055939186  MEMB      94              0.0000000000
     11644        94  POPE      H6R            28.5211026943      -40.9915885521        9.8582903989  MEMB      94              0.0000000000
     11645        94  POPE      H6S            28.8910060800      -39.4800040170       10.8310446299  MEMB      94              0.0000000000
     11646        94  POPE      C27            29.2061214918      -39.3364704935        8.7313247313  MEMB      94              0.0000000000
     11647        94  POPE      H7R            30.2570630544      -39.1939844350        9.0823748473  MEMB      94              0.0000000000
     11648        94  POPE      H7S            28.8027804922      -38.3512984899        8.5319926624  MEMB      94              0.0000000000
     11649        94  POPE      C28            29.0593328878      -40.1116676848        7.3767944978  MEMB      94              0.0000000000
     11650        94  POPE      H8R            28.0147233276      -40.1804521728        7.0581409922  MEMB      94              0.0000000000
     11651        94  POPE      H8S            29.2440395199      -41.0090347662        7.8956883281  MEMB      94              0.0000000000
     11652        94  POPE      C29            29.9500479914      -40.0418356985        6.1441627106  MEMB      94              0.0000000000
     11653        94  POPE      H91            31.0410641297      -39.8976217329        6.3370920214  MEMB      94              0.0000000000
     11654        94  POPE      C210           29.5242217832      -39.5009525440        5.0047962674  MEMB      94              0.0000000000
     11655        94  POPE      H101           30.3137695891      -38.9928123322        4.4236528647  MEMB      94              0.0000000000
     11656        94  POPE      C211           28.1306759512      -38.9159163454        4.7937614341  MEMB      94              0.0000000000
     11657        94  POPE      H11R           27.9951330946      -37.9502431516        4.2522879626  MEMB      94              0.0000000000
     11658        94  POPE      H11S           27.4598658809      -38.7372109455        5.6723815719  MEMB      94              0.0000000000
     11659        94  POPE      C212           27.7107145650      -39.6746592623        3.6440240470  MEMB      94              0.0000000000
     11660        94  POPE      H12R           27.6247290155      -40.7147225967        4.0326857460  MEMB      94              0.0000000000
     11661        94  POPE      H12S           28.4239079379      -39.4886627764        2.8121519421  MEMB      94              0.0000000000
     11662        94  POPE      C213           26.4183847700      -39.1210962193        3.2323479837  MEMB      94              0.0000000000
     11663        94  POPE      H13R           26.3164971708      -38.0439585813        2.9642365139  MEMB      94              0.0000000000
     11664        94  POPE      H13S           26.0384245037      -39.1982740731        4.2701999652  MEMB      94              0.0000000000
     11665        94  POPE      C214           25.7752519160      -40.0286128353        2.2186397408  MEMB      94              0.0000000000
     11666        94  POPE      H14R           24.7277418693      -39.6976338237        2.0330081842  MEMB      94              0.0000000000
     11667        94  POPE      H14S           25.7171530592      -41.0688100976        2.6282757341  MEMB      94              0.0000000000
     11668        94  POPE      C215           26.5246531321      -39.9086997509        0.9139997189  MEMB      94              0.0000000000
     11669        94  POPE      H15R           27.4049542349      -40.5969396764        0.9095363727  MEMB      94              0.0000000000
     11670        94  POPE      H15S           26.8197608816      -38.8677477907        0.7348222451  MEMB      94              0.0000000000
     11671        94  POPE      C216           25.6395014206      -40.2722020091       -0.1968598480  MEMB      94              0.0000000000
     11672        94  POPE      H16R           26.0417503654      -40.1096291956       -1.2241886415  MEMB      94              0.0000000000
     11673        94  POPE      H16S           24.6446772478      -39.7288738002       -0.1517870591  MEMB      94              0.0000000000
     11674        94  POPE      C217           25.5439984267      -41.7443805027        0.0668195784  MEMB      94              0.0000000000
     11675        94  POPE      H17R           24.6114058495      -41.5421732309       -0.4162993632  MEMB      94              0.0000000000
     11676        94  POPE      H17S           25.0028522028      -42.2509752750        0.8765041973  MEMB      94              0.0000000000
     11677        94  POPE      C218           26.6162338765      -42.6593310743       -0.5921716775  MEMB      94              0.0000000000
     11678        94  POPE      H18R           26.3033604900      -43.7228693900       -0.6487368297  MEMB      94              0.0000000000
     11679        94  POPE      H18S           27.5464293837      -42.7007250506       -0.0179014746  MEMB      94              0.0000000000
     11680        94  POPE      H18T           26.8316456306      -42.3376904217       -1.6358420154  MEMB      94              0.0000000000
     11681        94  POPE      C33            29.0055252836      -36.7402294922       12.1720264587  MEMB      94              0.0000000000
     11682        94  POPE      H3X            28.2500994699      -36.0825455024       11.7471357173  MEMB      94              0.0000000000
     11683        94  POPE      H3Y            28.6696632096      -37.7775590452       12.1402316356  MEMB      94              0.0000000000
     11684        94  POPE      C34            30.0390113095      -36.7035655519       11.1485628545  MEMB      94              0.0000000000
     11685        94  POPE      H4X            30.7793562116      -37.5257813495       11.0082664214  MEMB      94              0.0000000000
     11686        94  POPE      H4Y            30.3527598438      -35.7180833355       11.3438379916  MEMB      94              0.0000000000
     11687        94  POPE      C35            29.5732050556      -36.4605263130        9.8243828372  MEMB      94              0.0000000000
     11688        94  POPE      H5X            28.6130231104      -36.9144751452        9.6077976121  MEMB      94              0.0000000000
     11689        94  POPE      H5Y            30.5521500271      -36.7440239125        9.3504345264  MEMB      94              0.0000000000
     11690        94  POPE      C36            29.1386290391      -35.1043949256        9.2827830391  MEMB      94              0.0000000000
     11691        94  POPE      H6X            30.1410602847      -34.7078294523        9.5246330128  MEMB      94              0.0000000000
     11692        94  POPE      H6Y            28.4078780831      -34.9758854512       10.0666326109  MEMB      94              0.0000000000
     11693        94  POPE      C37            28.4661685513      -34.4238308104        7.8519869333  MEMB      94              0.0000000000
     11694        94  POPE      H7X            28.1741236586      -33.3874143247        7.9372396061  MEMB      94              0.0000000000
     11695        94  POPE      H7Y            27.5007367101      -34.8937604621        7.8231462107  MEMB      94              0.0000000000
     11696        94  POPE      C38            29.0508574127      -34.2063938560        6.3399046140  MEMB      94              0.0000000000
     11697        94  POPE      H8X            29.6301676422      -34.8802463248        6.1677312553  MEMB      94              0.0000000000
     11698        94  POPE      H8Y            30.1247829485      -34.1515998823        6.1206165947  MEMB      94              0.0000000000
     11699        94  POPE      C39            29.5916417381      -33.2395718038        5.3008410154  MEMB      94              0.0000000000
     11700        94  POPE      H9X            29.7546605674      -32.2063950559        5.4796926837  MEMB      94              0.0000000000
     11701        94  POPE      H9Y            28.5046432614      -33.2816394506        5.2653044630  MEMB      94              0.0000000000
     11702        94  POPE      C310           30.7937829970      -33.8361440358        4.2712795782  MEMB      94              0.0000000000
     11703        94  POPE      H10X           31.5970563751      -33.1964687546        4.5319548180  MEMB      94              0.0000000000
     11704        94  POPE      H10Y           30.7393131798      -33.5939051762        3.2282441137  MEMB      94              0.0000000000
     11705        94  POPE      C311           31.1665318433      -35.2118723164        3.5250858034  MEMB      94              0.0000000000
     11706        94  POPE      H11X           30.2142158735      -35.5520477381        3.2208655026  MEMB      94              0.0000000000
     11707        94  POPE      H11Y           31.8346933854      -35.8359935250        4.1475181383  MEMB      94              0.0000000000
     11708        94  POPE      C312           30.9237155317      -35.8948526421        2.1917539131  MEMB      94              0.0000000000
     11709        94  POPE      H12X           31.2487142198      -34.9912199891        1.7645410596  MEMB      94              0.0000000000
     11710        94  POPE      H12Y           30.0141538058      -36.0041752836        1.5274487253  MEMB      94              0.0000000000
     11711        94  POPE      C313           31.7727198885      -37.1392122089        2.4629188312  MEMB      94              0.0000000000
     11712        94  POPE      H13X           31.5868909326      -37.6956793033        3.4091859886  MEMB      94              0.0000000000
     11713        94  POPE      H13Y           32.8102332890      -36.7688246172        2.5957656571  MEMB      94              0.0000000000
     11714        94  POPE      C314           31.5182410631      -38.2979382816        1.5935481175  MEMB      94              0.0000000000
     11715        94  POPE      H14X           30.4049588659      -38.4695712169        1.4493358614  MEMB      94              0.0000000000
     11716        94  POPE      H14Y           32.3049564532      -39.0551231627        1.7040681802  MEMB      94              0.0000000000
     11717        94  POPE      C315           31.7566048062      -38.2284801551        0.2433589540  MEMB      94              0.0000000000
     11718        94  POPE      H15X           32.7815806148      -38.2163071620       -0.2716106704  MEMB      94              0.0000000000
     11719        94  POPE      H15Y           31.0745889047      -37.3064031055        0.1436095850  MEMB      94              0.0000000000
     11720        94  POPE      C316           31.6474685077      -39.4465200981       -0.4491390906  MEMB      94              0.0000000000
     11721        94  POPE      H16X           30.6390961884      -39.6499287656       -0.6624638958  MEMB      94              0.0000000000
     11722        94  POPE      H16Y           32.5660433368      -39.7994824572       -1.0098682036  MEMB      94              0.0000000000
     11723        94  POPE      H16Z           31.4483825595      -38.8971567012       -1.2752655283  MEMB      94              0.0000000000
     11724        95  PMPE      N             -28.8738247544       35.9125387886       20.0004070843  MEMB      95              0.0000000000
     11725        95  PMPE      HN1           -29.5387075390       35.8794291024       19.1998963900  MEMB      95              0.0000000000
     11726        95  PMPE      HN2           -29.0437113774       35.1036402271       20.6460444380  MEMB      95              0.0000000000
     11727        95  PMPE      HN3           -28.9919448646       36.8116448436       20.5132105146  MEMB      95              0.0000000000
     11728        95  PMPE      C12           -27.4803082955       35.8388696526       19.4091015663  MEMB      95              0.0000000000
     11729        95  PMPE      H12A          -27.4447868827       34.9346973749       18.7698061339  MEMB      95              0.0000000000
     11730        95  PMPE      H12B          -26.7443760578       35.7475729156       20.2245172242  MEMB      95              0.0000000000
     11731        95  PMPE      C11           -27.0876618787       37.0847144061       18.6021960375  MEMB      95              0.0000000000
     11732        95  PMPE      H11A          -27.8347015076       37.2737718216       17.7971911401  MEMB      95              0.0000000000
     11733        95  PMPE      H11B          -26.1103707372       36.8565956269       18.1043156511  MEMB      95              0.0000000000
     11734        95  PMPE      P             -26.7646237658       39.6628889774       18.8052744912  MEMB      95              0.0000000000
     11735        95  PMPE      O13           -25.9713004482       39.5432326842       17.5687688515  MEMB      95              0.0000000000
     11736        95  PMPE      O14           -26.4366404622       40.6152207809       19.8890587374  MEMB      95              0.0000000000
     11737        95  PMPE      O11           -28.2412713205       39.7883420279       18.3598588518  MEMB      95              0.0000000000
     11738        95  PMPE      O12           -26.9353187455       38.2099889876       19.4769052069  MEMB      95              0.0000000000
     11739        95  PMPE      C1            -29.3578906780       39.8050982825       19.2124567257  MEMB      95              0.0000000000
     11740        95  PMPE      HA            -29.3294482049       40.7601074440       19.7962070597  MEMB      95              0.0000000000
     11741        95  PMPE      HB            -29.3177826867       38.9708086761       19.9209554501  MEMB      95              0.0000000000
     11742        95  PMPE      C2            -30.6421229308       39.6855898342       18.3444721066  MEMB      95              0.0000000000
     11743        95  PMPE      HS            -31.5143315801       39.4435712944       18.9742327540  MEMB      95              0.0000000000
     11744        95  PMPE      O21           -30.5426867556       38.6901424028       17.2889077618  MEMB      95              0.0000000000
     11745        95  PMPE      C21           -31.7054921826       38.3094354207       16.7011650358  MEMB      95              0.0000000000
     11746        95  PMPE      O22           -32.8026679840       38.6978243861       17.0378715317  MEMB      95              0.0000000000
     11747        95  PMPE      C22           -31.3788550978       37.5712498605       15.3681293231  MEMB      95              0.0000000000
     11748        95  PMPE      H2R           -31.3718571387       36.4980896222       15.5485236099  MEMB      95              0.0000000000
     11749        95  PMPE      H2S           -30.3375725213       37.8736821554       15.0781036784  MEMB      95              0.0000000000
     11750        95  PMPE      C3            -30.7970390329       41.1251134313       17.8439971025  MEMB      95              0.0000000000
     11751        95  PMPE      HX            -30.8801855572       41.7218462313       18.7541569261  MEMB      95              0.0000000000
     11752        95  PMPE      HY            -31.8029233007       41.2785069394       17.3429472975  MEMB      95              0.0000000000
     11753        95  PMPE      O31           -29.6060130554       41.6223102695       17.2666571961  MEMB      95              0.0000000000
     11754        95  PMPE      C31           -29.9284214921       42.1624135922       16.2005137987  MEMB      95              0.0000000000
     11755        95  PMPE      O32           -31.0465697213       42.5309999525       15.9259957106  MEMB      95              0.0000000000
     11756        95  PMPE      C32           -28.8002729807       41.8224914049       15.2354985869  MEMB      95              0.0000000000
     11757        95  PMPE      H2X           -28.2684341712       40.8999139931       15.4220857489  MEMB      95              0.0000000000
     11758        95  PMPE      H2Y           -28.2320975096       42.6723007735       15.6225092293  MEMB      95              0.0000000000
     11759        95  PMPE      C23           -32.4008860193       37.7078731316       14.1815679585  MEMB      95              0.0000000000
     11760        95  PMPE      H3R           -32.9444572791       38.6459744932       14.2640749239  MEMB      95              0.0000000000
     11761        95  PMPE      H3S           -33.4350306173       37.3934007936       14.2443852690  MEMB      95              0.0000000000
     11762        95  PMPE      C24           -31.7235109109       37.4795571409       12.7889484686  MEMB      95              0.0000000000
     11763        95  PMPE      H4R           -30.6817732310       37.8788087746       12.7223832434  MEMB      95              0.0000000000
     11764        95  PMPE      H4S           -32.2896165205       38.0132160827       11.9823979071  MEMB      95              0.0000000000
     11765        95  PMPE      C25           -31.4949883223       36.0441323964       12.6229588705  MEMB      95              0.0000000000
     11766        95  PMPE      H5R           -32.4163165729       35.5873854176       13.0429914222  MEMB      95              0.0000000000
     11767        95  PMPE      H5S           -30.6014514952       35.7645155450       13.2057058007  MEMB      95              0.0000000000
     11768        95  PMPE      C26           -31.1799335204       35.5760902875       11.2364059202  MEMB      95              0.0000000000
     11769        95  PMPE      H6R           -32.1973733547       35.5692123618       10.8257645525  MEMB      95              0.0000000000
     11770        95  PMPE      H6S           -30.9829432574       34.5020086945       11.2832333973  MEMB      95              0.0000000000
     11771        95  PMPE      C27           -30.0005702797       36.2905517618       10.4844850822  MEMB      95              0.0000000000
     11772        95  PMPE      H7R           -29.0472747486       36.2567346019       11.0250693188  MEMB      95              0.0000000000
     11773        95  PMPE      H7S           -30.2301271619       37.3615314254       10.2441250873  MEMB      95              0.0000000000
     11774        95  PMPE      C28           -29.6986263164       35.6187245679        9.1404417307  MEMB      95              0.0000000000
     11775        95  PMPE      H8R           -30.7169745069       35.5609888104        8.8669719736  MEMB      95              0.0000000000
     11776        95  PMPE      H8S           -29.6153395951       34.5472838646        9.1175601280  MEMB      95              0.0000000000
     11777        95  PMPE      C29           -28.5353961646       36.2635123183        8.3227208241  MEMB      95              0.0000000000
     11778        95  PMPE      H9R           -27.6435798734       36.4441477982        8.9014034282  MEMB      95              0.0000000000
     11779        95  PMPE      C217          -28.8176342280       37.4475947364        7.5095883659  MEMB      95              0.0000000000
     11780        95  PMPE      H17R          -28.1624308435       38.3084471571        7.5938409518  MEMB      95              0.0000000000
     11781        95  PMPE      H17S          -29.8581829975       37.4864199290        7.7065431796  MEMB      95              0.0000000000
     11782        95  PMPE      C210          -28.3185108547       36.2255192350        6.7954681390  MEMB      95              0.0000000000
     11783        95  PMPE      H10R          -27.4433008713       36.6541863532        6.2999644893  MEMB      95              0.0000000000
     11784        95  PMPE      C211          -29.3604921232       35.9776211126        5.7417968832  MEMB      95              0.0000000000
     11785        95  PMPE      H11R          -29.1995310321       36.4625113727        4.7717327362  MEMB      95              0.0000000000
     11786        95  PMPE      H11S          -30.2413745192       36.1753949967        6.2693791288  MEMB      95              0.0000000000
     11787        95  PMPE      C212          -29.8020892246       34.6359122127        5.4804123597  MEMB      95              0.0000000000
     11788        95  PMPE      H12R          -29.7533923689       34.2650267697        6.5381037784  MEMB      95              0.0000000000
     11789        95  PMPE      H12S          -29.1060668364       34.2969395551        4.7233526775  MEMB      95              0.0000000000
     11790        95  PMPE      C213          -31.1601003159       34.3002334464        4.9542814991  MEMB      95              0.0000000000
     11791        95  PMPE      H13R          -31.4320982184       34.6995727304        4.0083160548  MEMB      95              0.0000000000
     11792        95  PMPE      H13S          -31.9875174302       34.5890438300        5.5881898515  MEMB      95              0.0000000000
     11793        95  PMPE      C214          -31.3756070263       33.1770514944        4.1117465232  MEMB      95              0.0000000000
     11794        95  PMPE      H14R          -32.4395608734       33.2243237951        3.7000559609  MEMB      95              0.0000000000
     11795        95  PMPE      H14S          -31.2810844223       32.3401652538        4.6875326172  MEMB      95              0.0000000000
     11796        95  PMPE      C215          -30.4013438350       32.8344878899        3.1164006271  MEMB      95              0.0000000000
     11797        95  PMPE      H15R          -30.4779101859       31.7995095695        2.7064877023  MEMB      95              0.0000000000
     11798        95  PMPE      H15S          -29.3571600871       33.0212919854        3.2194574516  MEMB      95              0.0000000000
     11799        95  PMPE      C216          -30.8725850710       33.6275240653        2.1087571463  MEMB      95              0.0000000000
     11800        95  PMPE      H16R          -31.7782890225       33.1617324293        1.7720351980  MEMB      95              0.0000000000
     11801        95  PMPE      H16S          -30.8616201126       34.7432380792        2.2808875766  MEMB      95              0.0000000000
     11802        95  PMPE      H16T          -30.2277066078       33.2815816942        1.3658985233  MEMB      95              0.0000000000
     11803        95  PMPE      C33           -29.0755754735       41.7297491874       13.7239161234  MEMB      95              0.0000000000
     11804        95  PMPE      H3X           -29.9713042125       42.4141010161       13.5933144374  MEMB      95              0.0000000000
     11805        95  PMPE      H3Y           -29.2205619803       40.7404782069       13.4077206639  MEMB      95              0.0000000000
     11806        95  PMPE      C34           -27.9987872002       41.7923422417       12.6216288001  MEMB      95              0.0000000000
     11807        95  PMPE      H4X           -27.3186906974       42.5754391896       12.8319317079  MEMB      95              0.0000000000
     11808        95  PMPE      H4Y           -28.2631496641       42.0648150026       11.6258903923  MEMB      95              0.0000000000
     11809        95  PMPE      C35           -26.8816141256       40.9294944960       12.4008066791  MEMB      95              0.0000000000
     11810        95  PMPE      H5X           -26.2554888050       41.0932790245       13.2979531813  MEMB      95              0.0000000000
     11811        95  PMPE      H5Y           -26.4378439171       41.3919857268       11.4613160684  MEMB      95              0.0000000000
     11812        95  PMPE      C36           -27.4841255454       39.6200381601       12.1774550074  MEMB      95              0.0000000000
     11813        95  PMPE      H6X           -28.1611079439       39.7262155053       11.3255555957  MEMB      95              0.0000000000
     11814        95  PMPE      H6Y           -28.0648760599       39.3071676041       13.0728184818  MEMB      95              0.0000000000
     11815        95  PMPE      C37           -26.4375605477       38.6495340733       11.8376482184  MEMB      95              0.0000000000
     11816        95  PMPE      H7X           -26.9914032141       37.7159405400       11.6320811098  MEMB      95              0.0000000000
     11817        95  PMPE      H7Y           -25.8567274420       38.5694185704       12.7882406873  MEMB      95              0.0000000000
     11818        95  PMPE      C38           -25.5637127984       39.0983621903       10.6585532246  MEMB      95              0.0000000000
     11819        95  PMPE      H8X           -24.6572187552       38.4712297126       10.7026013881  MEMB      95              0.0000000000
     11820        95  PMPE      H8Y           -25.2094397378       40.1462764085       10.7378722392  MEMB      95              0.0000000000
     11821        95  PMPE      C39           -26.1890645242       39.0581631556        9.2631367806  MEMB      95              0.0000000000
     11822        95  PMPE      H9X           -26.9972050553       39.7962112731        9.1998874035  MEMB      95              0.0000000000
     11823        95  PMPE      H9Y           -26.5900279884       38.0735852992        8.9789711704  MEMB      95              0.0000000000
     11824        95  PMPE      C310          -25.1726292525       39.4412275891        8.2009303779  MEMB      95              0.0000000000
     11825        95  PMPE      H10X          -24.3262534926       38.7386896563        8.3034110289  MEMB      95              0.0000000000
     11826        95  PMPE      H10Y          -24.7682180902       40.4511473107        8.4331447741  MEMB      95              0.0000000000
     11827        95  PMPE      C311          -25.7990058791       39.4296780405        6.7999529122  MEMB      95              0.0000000000
     11828        95  PMPE      H11X          -26.4107362719       40.3618670549        6.7286285479  MEMB      95              0.0000000000
     11829        95  PMPE      H11Y          -26.3868748710       38.5260450133        6.5746192124  MEMB      95              0.0000000000
     11830        95  PMPE      C312          -24.7876086493       39.5763862287        5.7102044878  MEMB      95              0.0000000000
     11831        95  PMPE      H12X          -24.0385437374       38.7498103344        5.6288486015  MEMB      95              0.0000000000
     11832        95  PMPE      H12Y          -24.3564201642       40.5092408639        6.1465444888  MEMB      95              0.0000000000
     11833        95  PMPE      C313          -25.2778011745       40.0326195319        4.3385437003  MEMB      95              0.0000000000
     11834        95  PMPE      H13X          -24.3685605568       40.3916883140        3.8332356510  MEMB      95              0.0000000000
     11835        95  PMPE      H13Y          -26.0114086022       40.8502322096        4.4490633749  MEMB      95              0.0000000000
     11836        95  PMPE      C314          -25.7509138303       38.9399653004        3.4172145558  MEMB      95              0.0000000000
     11837        95  PMPE      H14X          -26.5737455857       38.3892668083        3.9261830964  MEMB      95              0.0000000000
     11838        95  PMPE      H14Y          -24.8383751475       38.3157263682        3.2780115139  MEMB      95              0.0000000000
     11839        95  PMPE      C315          -26.1765567318       39.3346209896        2.0094690166  MEMB      95              0.0000000000
     11840        95  PMPE      H15X          -26.1878583938       38.4356643775        1.3430889217  MEMB      95              0.0000000000
     11841        95  PMPE      H15Y          -25.5111848407       40.0846706777        1.6012341858  MEMB      95              0.0000000000
     11842        95  PMPE      C316          -27.5272538674       39.9326185875        2.0169891036  MEMB      95              0.0000000000
     11843        95  PMPE      H16X          -28.1239202094       39.0540435053        2.2783332973  MEMB      95              0.0000000000
     11844        95  PMPE      H16Y          -27.8867113920       40.3407444278        1.0450284759  MEMB      95              0.0000000000
     11845        95  PMPE      H16Z          -27.6822809600       40.6620319140        2.8314459943  MEMB      95              0.0000000000
     11846        96  OYPE      N              35.3551006294       28.8436908054       17.8408475109  MEMB      96              0.0000000000
     11847        96  OYPE      HN1            36.3812472503       28.7331857893       17.7546102792  MEMB      96              0.0000000000
     11848        96  OYPE      HN2            34.8672394850       28.0467913112       17.3740180264  MEMB      96              0.0000000000
     11849        96  OYPE      HN3            35.1033863456       29.7034992262       17.3042811198  MEMB      96              0.0000000000
     11850        96  OYPE      C12            34.9069159744       28.9521347980       19.2583679843  MEMB      96              0.0000000000
     11851        96  OYPE      H12A           35.2901554916       28.0525483284       19.7803295986  MEMB      96              0.0000000000
     11852        96  OYPE      H12B           33.7951725200       28.9219734907       19.2481479214  MEMB      96              0.0000000000
     11853        96  OYPE      C11            35.4414623899       30.2306330613       19.9345320725  MEMB      96              0.0000000000
     11854        96  OYPE      H11A           35.3485836846       30.0702468943       21.0341760212  MEMB      96              0.0000000000
     11855        96  OYPE      H11B           34.7737585224       31.0853571851       19.6683634384  MEMB      96              0.0000000000
     11856        96  OYPE      P              37.3832051256       31.8315341183       19.0428993056  MEMB      96              0.0000000000
     11857        96  OYPE      O13            38.8375630482       31.8913905325       19.2377309092  MEMB      96              0.0000000000
     11858        96  OYPE      O14            36.6273940725       33.0093912889       19.5235688736  MEMB      96              0.0000000000
     11859        96  OYPE      O11            37.0940333507       31.6075418484       17.4874793057  MEMB      96              0.0000000000
     11860        96  OYPE      O12            36.8170107775       30.4741132128       19.6250894065  MEMB      96              0.0000000000
     11861        96  OYPE      C1             38.2412141897       31.7138416584       16.6120543996  MEMB      96              0.0000000000
     11862        96  OYPE      HA             39.0589043648       31.0271834694       16.9359399690  MEMB      96              0.0000000000
     11863        96  OYPE      HB             38.6356767025       32.7590177523       16.5977015462  MEMB      96              0.0000000000
     11864        96  OYPE      C2             37.8858011299       31.3957898391       15.1424157721  MEMB      96              0.0000000000
     11865        96  OYPE      HS             38.8008765133       31.4233161371       14.5071668813  MEMB      96              0.0000000000
     11866        96  OYPE      O21            36.8856452292       32.3327682002       14.7496820478  MEMB      96              0.0000000000
     11867        96  OYPE      C21            37.1071166423       33.0627829891       13.6963342182  MEMB      96              0.0000000000
     11868        96  OYPE      O22            38.1067600163       33.0555710221       12.9972936291  MEMB      96              0.0000000000
     11869        96  OYPE      C22            35.9038054193       33.9935923555       13.5541216810  MEMB      96              0.0000000000
     11870        96  OYPE      H2R            36.2710343773       35.0214285469       13.6387805378  MEMB      96              0.0000000000
     11871        96  OYPE      H2S            35.1632074555       33.7739009632       14.3627212981  MEMB      96              0.0000000000
     11872        96  OYPE      C3             37.2789553056       30.0034937413       14.9929990958  MEMB      96              0.0000000000
     11873        96  OYPE      HX             36.2525761219       30.2687633884       15.2032905872  MEMB      96              0.0000000000
     11874        96  OYPE      HY             37.6241882971       29.2764839826       15.7670679260  MEMB      96              0.0000000000
     11875        96  OYPE      O31            37.2633900708       29.5356325471       13.6362809749  MEMB      96              0.0000000000
     11876        96  OYPE      C31            38.3386369035       28.8235975986       13.3890392291  MEMB      96              0.0000000000
     11877        96  OYPE      O32            39.0726768405       28.4220081782       14.2519988420  MEMB      96              0.0000000000
     11878        96  OYPE      C32            38.5127011535       28.6103341712       11.9077309352  MEMB      96              0.0000000000
     11879        96  OYPE      H2X            38.3251166793       27.5436379649       11.6725743242  MEMB      96              0.0000000000
     11880        96  OYPE      H2Y            37.7342882545       29.2430360042       11.4338893834  MEMB      96              0.0000000000
     11881        96  OYPE      C23            35.2291715854       33.9459149585       12.2091774798  MEMB      96              0.0000000000
     11882        96  OYPE      H3R            35.8606879888       34.0073681518       11.3000801153  MEMB      96              0.0000000000
     11883        96  OYPE      H3S            34.4069474021       34.7019991733       12.1277107277  MEMB      96              0.0000000000
     11884        96  OYPE      C24            34.5539216753       32.6781491892       12.1415827228  MEMB      96              0.0000000000
     11885        96  OYPE      H4R            33.6956273759       32.7918327282       12.8234596903  MEMB      96              0.0000000000
     11886        96  OYPE      H4S            35.1214783857       31.7459739951       12.3972869063  MEMB      96              0.0000000000
     11887        96  OYPE      C25            34.1318953076       32.5991793417       10.7499005767  MEMB      96              0.0000000000
     11888        96  OYPE      H5R            33.8184263980       33.4211715090       10.0892182884  MEMB      96              0.0000000000
     11889        96  OYPE      H5S            33.2234379618       32.3467884900       11.1242634449  MEMB      96              0.0000000000
     11890        96  OYPE      C26            34.9182133109       31.5027580657       10.2435909028  MEMB      96              0.0000000000
     11891        96  OYPE      H6R            34.4386008362       30.9746068162        9.5622520542  MEMB      96              0.0000000000
     11892        96  OYPE      H6S            35.1381377264       30.5962361302       10.8492028687  MEMB      96              0.0000000000
     11893        96  OYPE      C27            35.9521050283       31.9684663948        9.3661114852  MEMB      96              0.0000000000
     11894        96  OYPE      H7R            36.3630267954       31.0170410501        9.2227398595  MEMB      96              0.0000000000
     11895        96  OYPE      H7S            36.6623165258       32.3173549075       10.0845551110  MEMB      96              0.0000000000
     11896        96  OYPE      C28            35.5836420866       32.8376632174        8.1389271963  MEMB      96              0.0000000000
     11897        96  OYPE      H8R            36.6138276776       33.1829675306        7.9100732697  MEMB      96              0.0000000000
     11898        96  OYPE      H8S            34.9435494095       33.6701362962        8.4694339835  MEMB      96              0.0000000000
     11899        96  OYPE      C29            34.9894170710       32.3112032391        6.8615076485  MEMB      96              0.0000000000
     11900        96  OYPE      H9R            34.5000347795       31.3659781593        6.8541092099  MEMB      96              0.0000000000
     11901        96  OYPE      C210           35.1285253707       32.8046011413        5.6776698156  MEMB      96              0.0000000000
     11902        96  OYPE      H10R           34.7442828562       32.3375173745        4.8006765596  MEMB      96              0.0000000000
     11903        96  OYPE      C211           35.8943587357       33.9839879836        5.4732493682  MEMB      96              0.0000000000
     11904        96  OYPE      H11R           36.9568680275       33.9268316452        5.8004959369  MEMB      96              0.0000000000
     11905        96  OYPE      H11S           35.3103213773       34.7700329053        5.9813138113  MEMB      96              0.0000000000
     11906        96  OYPE      C212           35.7800061035       34.2767563593        4.0461872432  MEMB      96              0.0000000000
     11907        96  OYPE      H12R           35.9073406815       35.3092065639        4.2158158839  MEMB      96              0.0000000000
     11908        96  OYPE      H12S           34.8175335484       34.1785579998        3.5048184373  MEMB      96              0.0000000000
     11909        96  OYPE      C213           36.9475104014       33.7998287951        3.3202312892  MEMB      96              0.0000000000
     11910        96  OYPE      H13R           36.8730559427       32.6858975695        3.4762190786  MEMB      96              0.0000000000
     11911        96  OYPE      H13S           37.9640999965       34.1126722356        3.6501067210  MEMB      96              0.0000000000
     11912        96  OYPE      C214           36.8055540347       34.1115216348        1.9105748943  MEMB      96              0.0000000000
     11913        96  OYPE      H14R           37.0108266980       35.0966268859        1.4222349423  MEMB      96              0.0000000000
     11914        96  OYPE      H14S           35.7064236701       33.9396389445        1.6240374495  MEMB      96              0.0000000000
     11915        96  OYPE      C215           37.7789307758       32.9295846508        1.6875056916  MEMB      96              0.0000000000
     11916        96  OYPE      H15R           37.0957624174       33.0567520407        0.9484310725  MEMB      96              0.0000000000
     11917        96  OYPE      H15S           37.5044624067       32.0534666111        1.0968833122  MEMB      96              0.0000000000
     11918        96  OYPE      C216           39.3395995668       33.0122163107        1.6009683169  MEMB      96              0.0000000000
     11919        96  OYPE      H16R           39.7228565717       34.0499727904        1.4614457715  MEMB      96              0.0000000000
     11920        96  OYPE      H16S           39.8393441584       32.4769966184        0.7413831214  MEMB      96              0.0000000000
     11921        96  OYPE      H16T           39.6104212467       32.4411893022        2.4796316764  MEMB      96              0.0000000000
     11922        96  OYPE      C33            39.8992596303       29.0735689400       11.4481978555  MEMB      96              0.0000000000
     11923        96  OYPE      H3X            40.7169965529       28.3857610894       11.7610073551  MEMB      96              0.0000000000
     11924        96  OYPE      H3Y            40.1369680866       30.0717263735       11.8768530733  MEMB      96              0.0000000000
     11925        96  OYPE      C34            40.0673694168       29.0636351236        9.9433430267  MEMB      96              0.0000000000
     11926        96  OYPE      H4X            41.0933078482       29.3963221225        9.8207266600  MEMB      96              0.0000000000
     11927        96  OYPE      H4Y            39.9296201819       28.0233145812        9.5733502551  MEMB      96              0.0000000000
     11928        96  OYPE      C35            39.1730948396       29.9328529163        9.1022952789  MEMB      96              0.0000000000
     11929        96  OYPE      H5X            39.1097943753       30.9969620547        9.4183137244  MEMB      96              0.0000000000
     11930        96  OYPE      H5Y            38.1718864521       29.4880932581        9.2787797030  MEMB      96              0.0000000000
     11931        96  OYPE      C36            39.6255354552       29.9472872864        7.6174658271  MEMB      96              0.0000000000
     11932        96  OYPE      H6X            39.1921070553       30.8636588193        7.1430500608  MEMB      96              0.0000000000
     11933        96  OYPE      H6Y            40.7207670286       29.9944586558        7.5507177294  MEMB      96              0.0000000000
     11934        96  OYPE      C37            39.2317121334       28.7523324324        6.7525746348  MEMB      96              0.0000000000
     11935        96  OYPE      H7X            39.1493009372       27.8079762201        7.3375396267  MEMB      96              0.0000000000
     11936        96  OYPE      H7Y            38.2734104898       29.0359551448        6.3455302791  MEMB      96              0.0000000000
     11937        96  OYPE      C38            39.9663799591       28.5836695191        5.4257292035  MEMB      96              0.0000000000
     11938        96  OYPE      H8X            41.0124290888       28.5602659968        5.6947818291  MEMB      96              0.0000000000
     11939        96  OYPE      H8Y            39.6933933113       27.5828617206        5.0045597186  MEMB      96              0.0000000000
     11940        96  OYPE      C39            39.8340887158       29.6894208309        4.4140478654  MEMB      96              0.0000000000
     11941        96  OYPE      H9X            40.5997629380       30.4566916286        4.3715161407  MEMB      96              0.0000000000
     11942        96  OYPE      C310           39.0357178527       29.6207552904        3.3829546492  MEMB      96              0.0000000000
     11943        96  OYPE      H10X           38.8097706409       30.5156068318        2.7546535906  MEMB      96              0.0000000000
     11944        96  OYPE      C311           38.1847758511       28.3903455311        3.1938292623  MEMB      96              0.0000000000
     11945        96  OYPE      H11X           38.3941218661       27.8084423292        2.2846991365  MEMB      96              0.0000000000
     11946        96  OYPE      H11Y           37.8035159961       27.8607491153        4.0719044901  MEMB      96              0.0000000000
     11947        96  OYPE      C312           36.9270500544       28.9351866717        2.8437285852  MEMB      96              0.0000000000
     11948        96  OYPE      H12X           37.2760433217       29.3100671477        1.8637509341  MEMB      96              0.0000000000
     11949        96  OYPE      H12Y           36.7813628949       29.7531063712        3.6101982225  MEMB      96              0.0000000000
     11950        96  OYPE      C313           35.7021635512       28.0700465522        2.6074699334  MEMB      96              0.0000000000
     11951        96  OYPE      H13X           35.3210835846       27.6530660678        1.7091827111  MEMB      96              0.0000000000
     11952        96  OYPE      H13Y           35.7401938142       27.4474768765        3.4610505889  MEMB      96              0.0000000000
     11953        96  OYPE      C314           34.2921941043       28.5175033462        2.3378786681  MEMB      96              0.0000000000
     11954        96  OYPE      H14X           34.1141095500       28.4776569046        3.4267744018  MEMB      96              0.0000000000
     11955        96  OYPE      H14Y           33.5634112531       27.9806036527        2.5492769687  MEMB      96              0.0000000000
     11956        96  OYPE      C315           33.5601604331       29.4980630319        1.2457681197  MEMB      96              0.0000000000
     11957        96  OYPE      H15X           32.6041971600       29.3346956168        1.6034016787  MEMB      96              0.0000000000
     11958        96  OYPE      H15Y           33.8397158010       28.8509488174        0.4091246619  MEMB      96              0.0000000000
     11959        96  OYPE      C316           33.3352726980       31.1474523152        0.9724110039  MEMB      96              0.0000000000
     11960        96  OYPE      H16X           34.0563362021       31.9211720178        0.8752052176  MEMB      96              0.0000000000
     11961        96  OYPE      H16Y           32.9208939229       31.7410582186        1.7706736041  MEMB      96              0.0000000000
     11962        96  OYPE      C317           33.1171529383       31.7377042213       -0.2967878828  MEMB      96              0.0000000000
     11963        96  OYPE      H17X           33.5201889644       31.3452169441       -1.2074994015  MEMB      96              0.0000000000
     11964        96  OYPE      H17Y           32.8609211200       32.8470435179       -0.1606594333  MEMB      96              0.0000000000
     11965        96  OYPE      C318           32.0746361158       30.9054361735       -0.3466526359  MEMB      96              0.0000000000
     11966        96  OYPE      H18X           31.7553009762       30.1654888312       -0.9918451730  MEMB      96              0.0000000000
     11967        96  OYPE      H18Y           31.2622063957       31.3725719006       -0.0707574083  MEMB      96              0.0000000000
     11968        96  OYPE      H18Z           31.6722195253       31.3429032178       -1.1290976807  MEMB      96              0.0000000000
     11969        97  QMPE      N             -31.6566436677      -37.7533294073       21.2508498097  MEMB      97              0.0000000000
     11970        97  QMPE      HN1           -31.8903892098      -36.7607791780       21.4023772393  MEMB      97              0.0000000000
     11971        97  QMPE      HN2           -31.3969478133      -38.2622049314       22.1202775423  MEMB      97              0.0000000000
     11972        97  QMPE      HN3           -30.8854258895      -37.8565073234       20.5557928611  MEMB      97              0.0000000000
     11973        97  QMPE      C12           -32.8331812321      -38.5045817934       20.7312176883  MEMB      97              0.0000000000
     11974        97  QMPE      H12A          -33.6887947283      -38.5474847834       21.4092935803  MEMB      97              0.0000000000
     11975        97  QMPE      H12B          -32.2715705079      -39.4618120979       20.7107577012  MEMB      97              0.0000000000
     11976        97  QMPE      C11           -33.4279489646      -38.1755523657       19.3488852885  MEMB      97              0.0000000000
     11977        97  QMPE      H11A          -34.2162145508      -38.7849750494       18.8621282375  MEMB      97              0.0000000000
     11978        97  QMPE      H11B          -32.7161547379      -38.7191653877       18.8335330267  MEMB      97              0.0000000000
     11979        97  QMPE      P             -32.6878553039      -35.7536973773       18.2606227744  MEMB      97              0.0000000000
     11980        97  QMPE      O13           -31.2872393146      -35.9303902606       18.6717288078  MEMB      97              0.0000000000
     11981        97  QMPE      O14           -33.2035262291      -34.4348974579       18.6199430361  MEMB      97              0.0000000000
     11982        97  QMPE      O11           -32.9695583699      -36.0607937888       16.7669896461  MEMB      97              0.0000000000
     11983        97  QMPE      O12           -33.5416284760      -36.8050480363       19.0463079065  MEMB      97              0.0000000000
     11984        97  QMPE      C1            -34.1850885751      -35.9384052584       16.0935659322  MEMB      97              0.0000000000
     11985        97  QMPE      HA            -34.5236473632      -34.8799877798       16.1385496424  MEMB      97              0.0000000000
     11986        97  QMPE      HB            -34.9248975683      -36.5925604994       16.5903127977  MEMB      97              0.0000000000
     11987        97  QMPE      C2            -34.0848034959      -36.3626094119       14.5923474964  MEMB      97              0.0000000000
     11988        97  QMPE      HS            -35.0546521921      -36.7612233972       14.2777346603  MEMB      97              0.0000000000
     11989        97  QMPE      O21           -33.0442033072      -37.2960825520       14.2423871540  MEMB      97              0.0000000000
     11990        97  QMPE      C21           -33.1787250641      -38.4447265831       14.8226750793  MEMB      97              0.0000000000
     11991        97  QMPE      O22           -34.1708107425      -38.8804957151       15.3542747657  MEMB      97              0.0000000000
     11992        97  QMPE      C22           -31.9584157841      -39.2689275087       14.7821698992  MEMB      97              0.0000000000
     11993        97  QMPE      H2R           -31.8449521749      -39.5174745182       15.7978020412  MEMB      97              0.0000000000
     11994        97  QMPE      H2S           -30.9619667000      -39.1233277801       15.0636420652  MEMB      97              0.0000000000
     11995        97  QMPE      C3            -33.9079489210      -35.1411951965       13.7137786498  MEMB      97              0.0000000000
     11996        97  QMPE      HX            -33.2389447815      -34.4346987184       14.2893233596  MEMB      97              0.0000000000
     11997        97  QMPE      HY            -34.8613009478      -34.5986935289       13.6104451698  MEMB      97              0.0000000000
     11998        97  QMPE      O31           -33.5497687523      -35.6072460111       12.3855940162  MEMB      97              0.0000000000
     11999        97  QMPE      C31           -32.6102270163      -34.8589985138       11.9244137647  MEMB      97              0.0000000000
     12000        97  QMPE      O32           -32.0362936265      -34.0538195963       12.6193977296  MEMB      97              0.0000000000
     12001        97  QMPE      C32           -32.4612212280      -35.1386933076       10.4158461352  MEMB      97              0.0000000000
     12002        97  QMPE      H2X           -31.4728745201      -35.6150857127       10.2615373266  MEMB      97              0.0000000000
     12003        97  QMPE      H2Y           -33.2650132195      -35.8012622120       10.0646847644  MEMB      97              0.0000000000
     12004        97  QMPE      C23           -31.2873053758      -39.6666319021       13.5534746714  MEMB      97              0.0000000000
     12005        97  QMPE      H3R           -32.0574690226      -40.1546939562       13.0309395217  MEMB      97              0.0000000000
     12006        97  QMPE      H3S           -30.3982672690      -40.3446510755       13.8067091513  MEMB      97              0.0000000000
     12007        97  QMPE      C24           -31.3457204179      -38.8921735653       12.2935720283  MEMB      97              0.0000000000
     12008        97  QMPE      H4R           -30.7331315965      -38.0482249583       12.1367620891  MEMB      97              0.0000000000
     12009        97  QMPE      H4S           -32.2801996054      -38.3329033949       12.2283512392  MEMB      97              0.0000000000
     12010        97  QMPE      C25           -30.7378117743      -39.7620383896       11.2362609101  MEMB      97              0.0000000000
     12011        97  QMPE      H5R           -31.5623969304      -40.3229418456       10.8007244100  MEMB      97              0.0000000000
     12012        97  QMPE      H5S           -29.9814877243      -40.4679151944       11.6654849621  MEMB      97              0.0000000000
     12013        97  QMPE      C26           -30.1177730805      -38.9015063714       10.1815475913  MEMB      97              0.0000000000
     12014        97  QMPE      H6R           -29.3350474304      -38.3193115776       10.5039444167  MEMB      97              0.0000000000
     12015        97  QMPE      H6S           -30.8502483087      -38.1803550435        9.7966052883  MEMB      97              0.0000000000
     12016        97  QMPE      C27           -29.4076053615      -39.6712257583        9.1748547908  MEMB      97              0.0000000000
     12017        97  QMPE      H7R           -28.8336349659      -40.5376449613        9.5978162796  MEMB      97              0.0000000000
     12018        97  QMPE      H7S           -28.7335676363      -39.0992853322        8.4829165144  MEMB      97              0.0000000000
     12019        97  QMPE      C28           -30.5694225000      -40.1718780801        8.4474774650  MEMB      97              0.0000000000
     12020        97  QMPE      H8R           -31.1236495652      -40.9620026943        8.9923417190  MEMB      97              0.0000000000
     12021        97  QMPE      H8S           -29.8802917237      -40.4816838436        7.7125023377  MEMB      97              0.0000000000
     12022        97  QMPE      C29           -31.1663601571      -39.3018882930        7.4083741893  MEMB      97              0.0000000000
     12023        97  QMPE      H9R           -30.4627503978      -38.7672857991        6.7678617103  MEMB      97              0.0000000000
     12024        97  QMPE      C217          -32.5089330842      -38.8925085218        7.9318260830  MEMB      97              0.0000000000
     12025        97  QMPE      H17R          -32.9415665245      -39.5885970993        8.6624181852  MEMB      97              0.0000000000
     12026        97  QMPE      H17S          -32.8353349801      -37.9254164285        7.6877187616  MEMB      97              0.0000000000
     12027        97  QMPE      C210          -32.4048267833      -39.5225780679        6.6217239687  MEMB      97              0.0000000000
     12028        97  QMPE      H10R          -32.4742835323      -39.0509348218        5.6342324806  MEMB      97              0.0000000000
     12029        97  QMPE      C211          -32.8303220442      -40.7835222659        6.6453239562  MEMB      97              0.0000000000
     12030        97  QMPE      H11R          -33.2240402895      -41.1078717759        7.6082995334  MEMB      97              0.0000000000
     12031        97  QMPE      H11S          -33.8432766338      -40.8246820331        6.2628197565  MEMB      97              0.0000000000
     12032        97  QMPE      C212          -31.4788839147      -41.3334091655        5.9712022722  MEMB      97              0.0000000000
     12033        97  QMPE      H12R          -31.3924183514      -42.3514172526        6.0176949595  MEMB      97              0.0000000000
     12034        97  QMPE      H12S          -30.5523319869      -41.4673333693        6.3215590400  MEMB      97              0.0000000000
     12035        97  QMPE      C213          -31.1808483491      -41.1702415802        4.5996730243  MEMB      97              0.0000000000
     12036        97  QMPE      H13R          -32.2271807818      -40.9886732418        4.7430636797  MEMB      97              0.0000000000
     12037        97  QMPE      H13S          -30.9249674399      -41.9647633530        3.8994917139  MEMB      97              0.0000000000
     12038        97  QMPE      C214          -30.1962142589      -40.4787537189        3.8910899981  MEMB      97              0.0000000000
     12039        97  QMPE      H14R          -29.2968345238      -40.9924865480        4.3146402705  MEMB      97              0.0000000000
     12040        97  QMPE      H14S          -30.6558935536      -39.5890135065        4.3509492669  MEMB      97              0.0000000000
     12041        97  QMPE      C215          -30.3506832406      -40.6921125820        2.3341944393  MEMB      97              0.0000000000
     12042        97  QMPE      H15R          -29.8373378226      -39.7849248431        2.0462126421  MEMB      97              0.0000000000
     12043        97  QMPE      H15S          -31.1892548442      -40.3426356105        1.8176894472  MEMB      97              0.0000000000
     12044        97  QMPE      C216          -30.0809367744      -42.0006040427        1.5297414215  MEMB      97              0.0000000000
     12045        97  QMPE      H16R          -29.0788865364      -42.3895922936        1.7673711217  MEMB      97              0.0000000000
     12046        97  QMPE      H16S          -30.2304948235      -41.7606827247        0.4475393900  MEMB      97              0.0000000000
     12047        97  QMPE      H16T          -30.7289154427      -42.8798929648        1.6463958063  MEMB      97              0.0000000000
     12048        97  QMPE      C33           -32.6829496179      -34.0283374573        9.4050884260  MEMB      97              0.0000000000
     12049        97  QMPE      H3X           -32.0819302554      -33.2351612062        9.7560194325  MEMB      97              0.0000000000
     12050        97  QMPE      H3Y           -33.5896515477      -33.3950774210        9.4142580826  MEMB      97              0.0000000000
     12051        97  QMPE      C34           -32.2170863035      -34.4996378002        8.0023405667  MEMB      97              0.0000000000
     12052        97  QMPE      H4X           -32.6781706658      -33.6492106075        7.4470034107  MEMB      97              0.0000000000
     12053        97  QMPE      H4Y           -32.7061547485      -35.3411174901        7.5395240823  MEMB      97              0.0000000000
     12054        97  QMPE      C35           -30.6605159068      -34.8159491143        7.8854648861  MEMB      97              0.0000000000
     12055        97  QMPE      H5X           -30.3410038383      -35.4997753941        8.6441989054  MEMB      97              0.0000000000
     12056        97  QMPE      H5Y           -30.0822346559      -34.1296477396        8.5308784102  MEMB      97              0.0000000000
     12057        97  QMPE      C36           -29.9646296843      -34.9665085337        6.4523629984  MEMB      97              0.0000000000
     12058        97  QMPE      H6X           -28.9616228767      -34.5285717157        6.2442356737  MEMB      97              0.0000000000
     12059        97  QMPE      H6Y           -30.3481691855      -34.4237048587        5.5951500752  MEMB      97              0.0000000000
     12060        97  QMPE      C37           -30.0275408444      -36.3333374409        6.0345219615  MEMB      97              0.0000000000
     12061        97  QMPE      H7X           -29.4686070303      -36.8378616003        6.8528166479  MEMB      97              0.0000000000
     12062        97  QMPE      H7Y           -31.1182179075      -36.5420919998        6.0903371605  MEMB      97              0.0000000000
     12063        97  QMPE      C38           -29.4097189868      -36.5317927158        4.6576949121  MEMB      97              0.0000000000
     12064        97  QMPE      H8X           -28.3042374727      -36.3801758993        4.7174472320  MEMB      97              0.0000000000
     12065        97  QMPE      H8Y           -29.7018383400      -37.5658666450        4.4226699495  MEMB      97              0.0000000000
     12066        97  QMPE      C39           -29.8822645730      -35.7040705729        3.4694122702  MEMB      97              0.0000000000
     12067        97  QMPE      H9X           -28.9780384822      -35.1230499113        3.1388345430  MEMB      97              0.0000000000
     12068        97  QMPE      H9Y           -30.6671007684      -34.9617014516        3.7494876511  MEMB      97              0.0000000000
     12069        97  QMPE      C310          -30.3693040197      -36.5235504644        2.2466533074  MEMB      97              0.0000000000
     12070        97  QMPE      H10X          -31.0869065293      -37.2793678855        2.5881975817  MEMB      97              0.0000000000
     12071        97  QMPE      H10Y          -29.4918319030      -37.0261076438        1.7793321235  MEMB      97              0.0000000000
     12072        97  QMPE      C311          -31.0397193673      -35.7141812316        1.1280000425  MEMB      97              0.0000000000
     12073        97  QMPE      H11X          -30.1584234750      -35.3445190838        0.5869812372  MEMB      97              0.0000000000
     12074        97  QMPE      H11Y          -31.6993240388      -34.9023163260        1.5157531497  MEMB      97              0.0000000000
     12075        97  QMPE      C312          -31.7760878774      -36.4081600157        0.0273602841  MEMB      97              0.0000000000
     12076        97  QMPE      H12X          -32.3030285814      -37.1989750591        0.5415395073  MEMB      97              0.0000000000
     12077        97  QMPE      H12Y          -31.0618749052      -36.8592889074       -0.6941252726  MEMB      97              0.0000000000
     12078        97  QMPE      C313          -32.8368218669      -35.5539845394       -0.6691350658  MEMB      97              0.0000000000
     12079        97  QMPE      H13X          -33.6655151103      -35.4506279952        0.0686496340  MEMB      97              0.0000000000
     12080        97  QMPE      H13Y          -32.4688099765      -34.5177721082       -0.8626107000  MEMB      97              0.0000000000
     12081        97  QMPE      C314          -33.2391956949      -36.3823834325       -1.9053646363  MEMB      97              0.0000000000
     12082        97  QMPE      H14X          -33.8196908646      -37.2700442555       -1.6006438286  MEMB      97              0.0000000000
     12083        97  QMPE      H14Y          -32.3862661804      -36.4727192911       -2.6056969616  MEMB      97              0.0000000000
     12084        97  QMPE      C315          -34.1156271898      -35.9123324189       -2.8967811977  MEMB      97              0.0000000000
     12085        97  QMPE      H15X          -33.6478184063      -34.9773820008       -3.1895070407  MEMB      97              0.0000000000
     12086        97  QMPE      H15Y          -34.5622092456      -36.3323890760       -3.8061808489  MEMB      97              0.0000000000
     12087        97  QMPE      H15Z          -35.0483733105      -35.7483253501       -2.3839258635  MEMB      97              0.0000000000
     12088        98  PYPG      C13            30.8323899552       38.1132173496       20.2798006825  MEMB      98              0.0000000000
     12089        98  PYPG      H13A           29.8000150308       38.3522125805       20.6290136886  MEMB      98              0.0000000000
     12090        98  PYPG      H13B           30.8428823942       37.0451561642       19.9834151924  MEMB      98              0.0000000000
     12091        98  PYPG      OC3            31.7600191520       38.2897408436       21.3439977125  MEMB      98              0.0000000000
     12092        98  PYPG      HO3            31.2785063133       38.2785950313       22.1639717283  MEMB      98              0.0000000000
     12093        98  PYPG      C12            31.2224402490       39.0412935294       19.1037135316  MEMB      98              0.0000000000
     12094        98  PYPG      H12A           31.4745941280       40.0395297086       19.5257994760  MEMB      98              0.0000000000
     12095        98  PYPG      OC2            30.1131504480       39.2173934010       18.2516543465  MEMB      98              0.0000000000
     12096        98  PYPG      HO2            30.4302313628       39.7010029240       17.4854915944  MEMB      98              0.0000000000
     12097        98  PYPG      C11            32.4361046989       38.5838991696       18.2723984267  MEMB      98              0.0000000000
     12098        98  PYPG      H11A           32.5569336295       39.2677217194       17.4016911624  MEMB      98              0.0000000000
     12099        98  PYPG      H11B           32.3111623337       37.5386608170       17.9101073917  MEMB      98              0.0000000000
     12100        98  PYPG      P              35.0024520883       38.3506788755       18.5812331913  MEMB      98              0.0000000000
     12101        98  PYPG      O13            35.0264449975       37.2401143463       17.6292127919  MEMB      98              0.0000000000
     12102        98  PYPG      O14            35.9034409267       38.3519815126       19.7554325090  MEMB      98              0.0000000000
     12103        98  PYPG      O11            35.2774415997       39.6152729922       17.7525670491  MEMB      98              0.0000000000
     12104        98  PYPG      O12            33.5677038050       38.6623507964       19.1091211262  MEMB      98              0.0000000000
     12105        98  PYPG      C1             35.1752524580       40.8377296779       18.4503635894  MEMB      98              0.0000000000
     12106        98  PYPG      HA             36.1351885664       40.9215715435       19.0283461996  MEMB      98              0.0000000000
     12107        98  PYPG      HB             34.4315876124       40.9996097704       19.2258834209  MEMB      98              0.0000000000
     12108        98  PYPG      C2             34.9538371714       41.8110810000       17.3663707763  MEMB      98              0.0000000000
     12109        98  PYPG      HS             34.6574069289       42.8474850561       17.7911572301  MEMB      98              0.0000000000
     12110        98  PYPG      O21            34.1447255602       41.4634145099       16.2366169106  MEMB      98              0.0000000000
     12111        98  PYPG      C21            32.9594388545       41.8884294392       16.3165743251  MEMB      98              0.0000000000
     12112        98  PYPG      O22            32.5391114399       42.7710286829       17.0439240338  MEMB      98              0.0000000000
     12113        98  PYPG      C22            32.1516728166       40.9736182437       15.4368154819  MEMB      98              0.0000000000
     12114        98  PYPG      H2R            31.2560243536       40.6884816581       16.0099077222  MEMB      98              0.0000000000
     12115        98  PYPG      H2S            32.7489278746       40.1543656592       15.0073292192  MEMB      98              0.0000000000
     12116        98  PYPG      C3             36.3969222473       41.7088831296       17.0645878720  MEMB      98              0.0000000000
     12117        98  PYPG      HX             37.1041770886       41.9911605917       17.9186079785  MEMB      98              0.0000000000
     12118        98  PYPG      HY             35.8941557022       42.5167414867       16.5194568233  MEMB      98              0.0000000000
     12119        98  PYPG      O31            37.0940416889       41.0917765439       16.0030700971  MEMB      98              0.0000000000
     12120        98  PYPG      C31            36.7420780378       40.7514434473       14.7558557538  MEMB      98              0.0000000000
     12121        98  PYPG      O32            36.0897655678       41.4095170175       13.9836944945  MEMB      98              0.0000000000
     12122        98  PYPG      C32            37.5735360918       39.5761798019       14.3751237758  MEMB      98              0.0000000000
     12123        98  PYPG      H2X            38.3846818447       39.8461820221       13.6658932002  MEMB      98              0.0000000000
     12124        98  PYPG      H2Y            37.9920483798       39.3471059889       15.3516913073  MEMB      98              0.0000000000
     12125        98  PYPG      C23            31.5799774351       41.6397248852       14.2814341008  MEMB      98              0.0000000000
     12126        98  PYPG      H3R            31.3296661143       42.6262919267       14.7694867823  MEMB      98              0.0000000000
     12127        98  PYPG      H3S            30.7009702933       41.1441012847       13.8042675016  MEMB      98              0.0000000000
     12128        98  PYPG      C24            32.5030199933       41.9069875283       13.2041461259  MEMB      98              0.0000000000
     12129        98  PYPG      H4R            33.2509134634       42.5973518150       13.6793401251  MEMB      98              0.0000000000
     12130        98  PYPG      H4S            31.8686206108       42.3682022392       12.4329534175  MEMB      98              0.0000000000
     12131        98  PYPG      C25            33.2740554535       40.9968331199       12.3280303190  MEMB      98              0.0000000000
     12132        98  PYPG      H5R            33.9688770153       40.5368550484       13.0215950603  MEMB      98              0.0000000000
     12133        98  PYPG      H5S            33.8810146096       41.5955766906       11.6342828659  MEMB      98              0.0000000000
     12134        98  PYPG      C26            32.4358337493       40.0463669259       11.5245409554  MEMB      98              0.0000000000
     12135        98  PYPG      H6R            33.0755844508       39.7404264601       10.6727931594  MEMB      98              0.0000000000
     12136        98  PYPG      H6S            31.5344782064       40.4943388258       11.0611114262  MEMB      98              0.0000000000
     12137        98  PYPG      C27            32.1114317297       38.8838111437       12.4456808246  MEMB      98              0.0000000000
     12138        98  PYPG      H7R            31.3695543685       39.2104500769       13.2085041234  MEMB      98              0.0000000000
     12139        98  PYPG      H7S            33.0306473819       38.5981917577       13.0053443054  MEMB      98              0.0000000000
     12140        98  PYPG      C28            31.5181814221       37.6777343410       11.7304982282  MEMB      98              0.0000000000
     12141        98  PYPG      H8R            30.6033479966       38.0405984090       11.2147970440  MEMB      98              0.0000000000
     12142        98  PYPG      H8S            31.1965004254       36.9928662576       12.5445715482  MEMB      98              0.0000000000
     12143        98  PYPG      C29            32.4552583597       36.9477120383       10.8012682452  MEMB      98              0.0000000000
     12144        98  PYPG      H9R            33.5043599371       36.9023123599       11.1216253915  MEMB      98              0.0000000000
     12145        98  PYPG      C210           32.1385880044       36.4513336151        9.5976829680  MEMB      98              0.0000000000
     12146        98  PYPG      H10R           32.8882987090       35.9315245277        8.9886465423  MEMB      98              0.0000000000
     12147        98  PYPG      C211           30.8115550578       36.5242567882        8.9374702227  MEMB      98              0.0000000000
     12148        98  PYPG      H11R           30.0340311261       37.0577678218        9.5403106868  MEMB      98              0.0000000000
     12149        98  PYPG      H11S           30.3701103156       35.5300522426        8.7017306768  MEMB      98              0.0000000000
     12150        98  PYPG      C212           31.0565361422       37.2688361185        7.6192794438  MEMB      98              0.0000000000
     12151        98  PYPG      H12R           31.4045016481       38.3090861162        7.7110407050  MEMB      98              0.0000000000
     12152        98  PYPG      H12S           30.0079500189       37.3351478761        7.3502853663  MEMB      98              0.0000000000
     12153        98  PYPG      C213           31.7213214595       36.5327819793        6.4392178732  MEMB      98              0.0000000000
     12154        98  PYPG      H13R           31.3954505376       35.4670864419        6.3950209142  MEMB      98              0.0000000000
     12155        98  PYPG      H13S           32.7597755900       36.3341314563        6.6840836875  MEMB      98              0.0000000000
     12156        98  PYPG      C214           31.5210101614       37.1263591784        5.0106142883  MEMB      98              0.0000000000
     12157        98  PYPG      H14R           30.4679578905       37.2661915663        4.6502776664  MEMB      98              0.0000000000
     12158        98  PYPG      H14S           31.7328092125       38.1854991539        4.8824775894  MEMB      98              0.0000000000
     12159        98  PYPG      C215           32.3170285498       36.1537152848        4.1013018700  MEMB      98              0.0000000000
     12160        98  PYPG      H15R           32.0797137393       35.1053494545        4.4315635337  MEMB      98              0.0000000000
     12161        98  PYPG      H15S           33.3887647865       36.2418724146        4.2627593062  MEMB      98              0.0000000000
     12162        98  PYPG      C216           32.0106034308       36.2618703055        2.6237737634  MEMB      98              0.0000000000
     12163        98  PYPG      H16R           30.9798074606       36.0175839626        2.5762054237  MEMB      98              0.0000000000
     12164        98  PYPG      H16S           32.4603766267       35.4875246124        1.9637925074  MEMB      98              0.0000000000
     12165        98  PYPG      H16T           31.9816062407       37.2908076189        2.2430693833  MEMB      98              0.0000000000
     12166        98  PYPG      C33            36.7109062171       38.3656052809       14.0129186343  MEMB      98              0.0000000000
     12167        98  PYPG      H3X            36.0054915986       38.1143098871       14.8353348261  MEMB      98              0.0000000000
     12168        98  PYPG      H3Y            37.3107244163       37.4605405422       13.8719806751  MEMB      98              0.0000000000
     12169        98  PYPG      C34            35.9642299711       38.4683131277       12.7076137936  MEMB      98              0.0000000000
     12170        98  PYPG      H4X            35.3022197471       39.3348586717       12.6935747123  MEMB      98              0.0000000000
     12171        98  PYPG      H4Y            35.3361284329       37.5523942365       12.6569362233  MEMB      98              0.0000000000
     12172        98  PYPG      C35            36.8719453183       38.5481662188       11.4923773683  MEMB      98              0.0000000000
     12173        98  PYPG      H5X            37.7227724831       37.8693470906       11.6290975611  MEMB      98              0.0000000000
     12174        98  PYPG      H5Y            37.2895043371       39.5762450145       11.4139388396  MEMB      98              0.0000000000
     12175        98  PYPG      C36            36.0957433559       38.1328619352       10.2472552910  MEMB      98              0.0000000000
     12176        98  PYPG      H6X            35.2952244762       38.8928301064       10.1119032110  MEMB      98              0.0000000000
     12177        98  PYPG      H6Y            35.6227631893       37.1311602270       10.3942687093  MEMB      98              0.0000000000
     12178        98  PYPG      C37            36.9710363024       37.9455318361        9.0119287636  MEMB      98              0.0000000000
     12179        98  PYPG      H7X            37.5375384691       38.8751214010        8.7966543491  MEMB      98              0.0000000000
     12180        98  PYPG      H7Y            37.6857151964       37.1242081041        9.2699746260  MEMB      98              0.0000000000
     12181        98  PYPG      C38            36.1364708979       37.5075997182        7.8017025030  MEMB      98              0.0000000000
     12182        98  PYPG      H8X            35.2681279246       38.1801821244        7.6435739244  MEMB      98              0.0000000000
     12183        98  PYPG      H8Y            35.7337534102       36.4974409821        8.0662443074  MEMB      98              0.0000000000
     12184        98  PYPG      C39            36.9277956988       37.3096837250        6.4988536356  MEMB      98              0.0000000000
     12185        98  PYPG      H9X            36.3611203016       36.5459290920        5.9271380972  MEMB      98              0.0000000000
     12186        98  PYPG      H9Y            37.9189992658       36.8803737608        6.7526101632  MEMB      98              0.0000000000
     12187        98  PYPG      C310           37.1381944539       38.5245772536        5.5756312593  MEMB      98              0.0000000000
     12188        98  PYPG      H10X           37.7114173935       39.3099724605        6.1176250365  MEMB      98              0.0000000000
     12189        98  PYPG      H10Y           36.1728196818       38.9829746714        5.2719427247  MEMB      98              0.0000000000
     12190        98  PYPG      C311           37.9352723686       38.1755394761        4.2972841904  MEMB      98              0.0000000000
     12191        98  PYPG      H11X           38.9684955440       37.9121736832        4.6127702413  MEMB      98              0.0000000000
     12192        98  PYPG      H11Y           37.9559424709       39.0669341306        3.6382469619  MEMB      98              0.0000000000
     12193        98  PYPG      C312           37.4380553624       37.0105294919        3.4384296955  MEMB      98              0.0000000000
     12194        98  PYPG      H12X           38.0807018786       36.8545926038        2.5505896592  MEMB      98              0.0000000000
     12195        98  PYPG      H12Y           37.6425688530       36.1053565735        4.0546400667  MEMB      98              0.0000000000
     12196        98  PYPG      C313           35.9488047066       37.1156268242        3.0240570497  MEMB      98              0.0000000000
     12197        98  PYPG      H13X           35.6090709711       36.1981025620        2.4953273409  MEMB      98              0.0000000000
     12198        98  PYPG      H13Y           35.3498008820       37.1543543364        3.9657982672  MEMB      98              0.0000000000
     12199        98  PYPG      C314           35.4997620367       38.1940812470        2.0997211295  MEMB      98              0.0000000000
     12200        98  PYPG      H14X           34.4429807978       38.4023193147        2.4055640432  MEMB      98              0.0000000000
     12201        98  PYPG      H14Y           36.1326716362       39.0818526051        2.2627046000  MEMB      98              0.0000000000
     12202        98  PYPG      C315           35.5231971857       37.7440266004        0.6479533438  MEMB      98              0.0000000000
     12203        98  PYPG      H15X           36.4703386230       37.2192742023        0.3910518366  MEMB      98              0.0000000000
     12204        98  PYPG      H15Y           34.7171214168       36.9827488964        0.4827916876  MEMB      98              0.0000000000
     12205        98  PYPG      C316           35.3596203920       38.9449811016       -0.2789649867  MEMB      98              0.0000000000
     12206        98  PYPG      H16X           36.1827334667       39.6665304685       -0.2462854616  MEMB      98              0.0000000000
     12207        98  PYPG      H16Y           34.3490014792       39.3881524030       -0.1718256574  MEMB      98              0.0000000000
     12208        98  PYPG      H16Z           35.4912795399       38.6870217110       -1.3239159565  MEMB      98              0.0000000000
     12209        99  POPE      N              37.4194198030      -35.9992280487       15.9161242098  MEMB      99              0.0000000000
     12210        99  POPE      HN1            37.9759138799      -36.8031920106       15.5089542618  MEMB      99              0.0000000000
     12211        99  POPE      HN2            37.2898746903      -36.9688292765       16.2968266626  MEMB      99              0.0000000000
     12212        99  POPE      HN3            36.4667182926      -35.9500095065       15.4880484779  MEMB      99              0.0000000000
     12213        99  POPE      C12            37.1355933521      -35.4672766849       17.3601430243  MEMB      99              0.0000000000
     12214        99  POPE      H12A           36.6119280942      -36.0831158998       18.1145189482  MEMB      99              0.0000000000
     12215        99  POPE      H12B           36.1225794311      -35.0871030811       17.5085182050  MEMB      99              0.0000000000
     12216        99  POPE      C11            38.4115002084      -35.3634745308       18.0937146589  MEMB      99              0.0000000000
     12217        99  POPE      H11A           38.8844700805      -34.6327913054       17.3976428890  MEMB      99              0.0000000000
     12218        99  POPE      H11B           39.0273823892      -36.3032879491       18.1346871850  MEMB      99              0.0000000000
     12219        99  POPE      P              38.9247886799      -33.6289401319       19.9070034936  MEMB      99              0.0000000000
     12220        99  POPE      O13            40.3243135747      -33.8794142557       19.5306031198  MEMB      99              0.0000000000
     12221        99  POPE      O14            38.5655254032      -33.4661841059       21.3295037526  MEMB      99              0.0000000000
     12222        99  POPE      O11            38.2553141632      -32.5714093125       19.0062699695  MEMB      99              0.0000000000
     12223        99  POPE      O12            38.1235243654      -34.9034734860       19.4062899627  MEMB      99              0.0000000000
     12224        99  POPE      C1             36.8664749970      -32.3392924626       19.0766323383  MEMB      99              0.0000000000
     12225        99  POPE      HA             36.5876364037      -31.8624665002       20.0373635033  MEMB      99              0.0000000000
     12226        99  POPE      HB             36.2658082046      -33.2618197349       18.9232821587  MEMB      99              0.0000000000
     12227        99  POPE      C2             36.6058630584      -31.3268281924       18.0135773183  MEMB      99              0.0000000000
     12228        99  POPE      HS             35.5639751697      -30.9383146020       18.1199368710  MEMB      99              0.0000000000
     12229        99  POPE      O21            36.8704169781      -32.0164082104       16.7668796614  MEMB      99              0.0000000000
     12230        99  POPE      C21            35.8677243860      -32.0445994102       15.9624938771  MEMB      99              0.0000000000
     12231        99  POPE      O22            34.7601451927      -31.6357666235       16.2507938009  MEMB      99              0.0000000000
     12232        99  POPE      C22            36.3262223604      -32.7654646240       14.6905731756  MEMB      99              0.0000000000
     12233        99  POPE      H2R            36.9698149327      -33.6220883802       14.8815800051  MEMB      99              0.0000000000
     12234        99  POPE      H2S            36.8414254580      -32.0004442845       14.0432468864  MEMB      99              0.0000000000
     12235        99  POPE      C3             37.5444031494      -30.0886886158       18.3174963885  MEMB      99              0.0000000000
     12236        99  POPE      HX             37.3846298703      -29.7008729490       19.3300647746  MEMB      99              0.0000000000
     12237        99  POPE      HY             37.1152650276      -29.2622458037       17.8041292005  MEMB      99              0.0000000000
     12238        99  POPE      O31            38.9689098556      -30.1692040156       18.1149441147  MEMB      99              0.0000000000
     12239        99  POPE      C31            39.2785548617      -30.3566275512       16.8411864906  MEMB      99              0.0000000000
     12240        99  POPE      O32            38.4729255464      -30.4559461238       15.9516607062  MEMB      99              0.0000000000
     12241        99  POPE      C32            40.7340377786      -30.5295719841       16.6191406525  MEMB      99              0.0000000000
     12242        99  POPE      H2X            40.9987716262      -31.0013113340       17.5628412069  MEMB      99              0.0000000000
     12243        99  POPE      H2Y            41.3662408649      -29.6589972100       16.4929848631  MEMB      99              0.0000000000
     12244        99  POPE      C23            35.1892372723      -33.2802952022       13.8385691236  MEMB      99              0.0000000000
     12245        99  POPE      H3R            35.5650317690      -33.4846579981       12.8101261750  MEMB      99              0.0000000000
     12246        99  POPE      H3S            34.7871158364      -32.2545395752       13.7546420087  MEMB      99              0.0000000000
     12247        99  POPE      C24            34.1400253190      -34.4044419500       14.3171604053  MEMB      99              0.0000000000
     12248        99  POPE      H4R            33.9778254566      -34.2329448461       15.3930048595  MEMB      99              0.0000000000
     12249        99  POPE      H4S            34.6267330093      -35.3433308276       14.0046798955  MEMB      99              0.0000000000
     12250        99  POPE      C25            32.6670809638      -34.7189855040       13.7642419802  MEMB      99              0.0000000000
     12251        99  POPE      H5R            31.9485737645      -33.8772750359       13.5794399938  MEMB      99              0.0000000000
     12252        99  POPE      H5S            31.9754593306      -35.2290068554       14.4461057561  MEMB      99              0.0000000000
     12253        99  POPE      C26            32.7311184831      -35.4183401900       12.3949057820  MEMB      99              0.0000000000
     12254        99  POPE      H6R            31.7652807999      -35.3428162341       12.0800198782  MEMB      99              0.0000000000
     12255        99  POPE      H6S            33.4155201836      -36.2341663741       12.1503870787  MEMB      99              0.0000000000
     12256        99  POPE      C27            33.1475967640      -35.0389008580       11.0886396574  MEMB      99              0.0000000000
     12257        99  POPE      H7R            34.1491497112      -34.7386249190       11.5504575475  MEMB      99              0.0000000000
     12258        99  POPE      H7S            32.4063258220      -34.1935259512       10.8793281571  MEMB      99              0.0000000000
     12259        99  POPE      C28            33.3583239636      -35.8862622022        9.7877599012  MEMB      99              0.0000000000
     12260        99  POPE      H8R            33.3816321386      -35.3320387412        8.8363741720  MEMB      99              0.0000000000
     12261        99  POPE      H8S            32.3903570284      -36.3790236196        9.7486578379  MEMB      99              0.0000000000
     12262        99  POPE      C29            34.5615340095      -36.7449594002        9.6389046033  MEMB      99              0.0000000000
     12263        99  POPE      H91            34.7849609279      -37.0058043406       10.6567292252  MEMB      99              0.0000000000
     12264        99  POPE      C210           35.5935511239      -36.9113484663        8.7658395782  MEMB      99              0.0000000000
     12265        99  POPE      H101           36.2780358315      -37.7282709711        9.0160549222  MEMB      99              0.0000000000
     12266        99  POPE      C211           36.0573999998      -36.2824279639        7.4657318024  MEMB      99              0.0000000000
     12267        99  POPE      H11R           37.0513557380      -35.8068313937        7.6303966832  MEMB      99              0.0000000000
     12268        99  POPE      H11S           35.4634867927      -35.4504698994        7.1110045085  MEMB      99              0.0000000000
     12269        99  POPE      C212           36.1287722079      -37.2141889993        6.2500988605  MEMB      99              0.0000000000
     12270        99  POPE      H12R           35.1078302228      -37.6362701485        6.0650197659  MEMB      99              0.0000000000
     12271        99  POPE      H12S           36.8726585742      -37.9987928149        6.4211489099  MEMB      99              0.0000000000
     12272        99  POPE      C213           36.5186039918      -36.4689780719        4.9865327677  MEMB      99              0.0000000000
     12273        99  POPE      H13R           37.2566036396      -35.6473819449        5.1510296641  MEMB      99              0.0000000000
     12274        99  POPE      H13S           35.5092094439      -36.1303898524        4.7453683586  MEMB      99              0.0000000000
     12275        99  POPE      C214           36.9644754767      -37.2065651682        3.7502292309  MEMB      99              0.0000000000
     12276        99  POPE      H14R           36.2830924755      -38.0736735862        3.5995334398  MEMB      99              0.0000000000
     12277        99  POPE      H14S           38.0034618912      -37.4872361283        3.9955145385  MEMB      99              0.0000000000
     12278        99  POPE      C215           37.0506263768      -36.3606964549        2.4799367659  MEMB      99              0.0000000000
     12279        99  POPE      H15R           37.5756211615      -35.3830881160        2.6057442498  MEMB      99              0.0000000000
     12280        99  POPE      H15S           36.0571854768      -36.1326340931        2.1039941050  MEMB      99              0.0000000000
     12281        99  POPE      C216           37.5587699358      -37.1359619727        1.2964366191  MEMB      99              0.0000000000
     12282        99  POPE      H16R           36.8189158330      -37.9066129794        0.9857490103  MEMB      99              0.0000000000
     12283        99  POPE      H16S           38.5266327310      -37.6250671663        1.5281000875  MEMB      99              0.0000000000
     12284        99  POPE      C217           37.7392903753      -36.1939682775        0.1479210795  MEMB      99              0.0000000000
     12285        99  POPE      H17R           38.7337392622      -36.5166957300       -0.2146493953  MEMB      99              0.0000000000
     12286        99  POPE      H17S           37.7468652112      -35.1111302920        0.4592882535  MEMB      99              0.0000000000
     12287        99  POPE      C218           36.8500446721      -36.4321209074       -1.0468434845  MEMB      99              0.0000000000
     12288        99  POPE      H18R           35.9745848588      -36.8787897468       -0.6308096206  MEMB      99              0.0000000000
     12289        99  POPE      H18S           37.1204259031      -37.2359686582       -1.7232522849  MEMB      99              0.0000000000
     12290        99  POPE      H18T           36.5832156671      -35.5216298508       -1.6347532520  MEMB      99              0.0000000000
     12291        99  POPE      C33            41.0490827135      -31.3763446415       15.4136315457  MEMB      99              0.0000000000
     12292        99  POPE      H3X            42.0971590214      -31.4788601178       15.2643893478  MEMB      99              0.0000000000
     12293        99  POPE      H3Y            40.7270970059      -30.9253181332       14.4579949872  MEMB      99              0.0000000000
     12294        99  POPE      C34            40.6996384172      -32.7891635984       15.6821565455  MEMB      99              0.0000000000
     12295        99  POPE      H4X            39.6549831690      -32.7776419359       16.0349457350  MEMB      99              0.0000000000
     12296        99  POPE      H4Y            41.3958270245      -33.2364791979       16.4382119626  MEMB      99              0.0000000000
     12297        99  POPE      C35            40.6853253028      -33.5608475496       14.4258575902  MEMB      99              0.0000000000
     12298        99  POPE      H5X            40.1737885311      -33.0432375658       13.5844091266  MEMB      99              0.0000000000
     12299        99  POPE      H5Y            40.1009502795      -34.4714060664       14.6894181990  MEMB      99              0.0000000000
     12300        99  POPE      C36            42.0125698809      -33.9487868525       13.9127584735  MEMB      99              0.0000000000
     12301        99  POPE      H6X            42.6853102545      -34.4226629155       14.6827729431  MEMB      99              0.0000000000
     12302        99  POPE      H6Y            42.6161970549      -33.1980097998       13.4000515077  MEMB      99              0.0000000000
     12303        99  POPE      C37            41.5133179504      -34.9514930412       12.9371419126  MEMB      99              0.0000000000
     12304        99  POPE      H7X            40.8932047703      -35.7660123913       13.3251938146  MEMB      99              0.0000000000
     12305        99  POPE      H7Y            42.4189695558      -35.4896909748       13.1522283832  MEMB      99              0.0000000000
     12306        99  POPE      C38            40.9685926812      -34.5145696070       11.5289598913  MEMB      99              0.0000000000
     12307        99  POPE      H8X            41.7549290929      -33.9921240792       10.9255228229  MEMB      99              0.0000000000
     12308        99  POPE      H8Y            40.1045511348      -33.8589085230       11.6240729167  MEMB      99              0.0000000000
     12309        99  POPE      C39            40.1215135326      -35.5383364545       10.6970069893  MEMB      99              0.0000000000
     12310        99  POPE      H9X            39.8565527382      -36.5398245011       11.0933467043  MEMB      99              0.0000000000
     12311        99  POPE      H9Y            40.9441589473      -35.9012076460       10.3195147419  MEMB      99              0.0000000000
     12312        99  POPE      C310           39.6917311104      -35.2379657272        9.2272422269  MEMB      99              0.0000000000
     12313        99  POPE      H10X           38.7929687732      -34.7054179637        9.5395537445  MEMB      99              0.0000000000
     12314        99  POPE      H10Y           39.4553825535      -36.2105877010        8.7126942005  MEMB      99              0.0000000000
     12315        99  POPE      C311           40.5808400680      -34.4391088866        8.2004574660  MEMB      99              0.0000000000
     12316        99  POPE      H11X           41.5402071336      -34.9437453593        7.9357721806  MEMB      99              0.0000000000
     12317        99  POPE      H11Y           40.8830412967      -33.4524170186        8.5954957335  MEMB      99              0.0000000000
     12318        99  POPE      C312           39.8081329963      -34.2350554649        6.8685331814  MEMB      99              0.0000000000
     12319        99  POPE      H12X           38.8071869295      -33.8268554180        7.1297843288  MEMB      99              0.0000000000
     12320        99  POPE      H12Y           39.6483123099      -35.2211993162        6.3761179447  MEMB      99              0.0000000000
     12321        99  POPE      C313           40.4700657243      -33.3343382595        5.7997822021  MEMB      99              0.0000000000
     12322        99  POPE      H13X           41.3827210805      -33.8541628010        5.4401029420  MEMB      99              0.0000000000
     12323        99  POPE      H13Y           40.7949683966      -32.3759296993        6.2633233133  MEMB      99              0.0000000000
     12324        99  POPE      C314           39.5274853872      -33.0333838713        4.6057244965  MEMB      99              0.0000000000
     12325        99  POPE      H14X           39.4528729859      -31.9315602886        4.4556105079  MEMB      99              0.0000000000
     12326        99  POPE      H14Y           38.5053598411      -33.3888724086        4.8621740916  MEMB      99              0.0000000000
     12327        99  POPE      C315           39.9108591868      -33.6280349078        3.2329692043  MEMB      99              0.0000000000
     12328        99  POPE      H15X           39.1402741014      -33.2643331766        2.5126559233  MEMB      99              0.0000000000
     12329        99  POPE      H15Y           39.8569823811      -34.7414375815        3.2520759358  MEMB      99              0.0000000000
     12330        99  POPE      C316           41.2660120284      -33.1588101268        2.6965731625  MEMB      99              0.0000000000
     12331        99  POPE      H16X           41.3530097822      -33.2923608450        1.5943532300  MEMB      99              0.0000000000
     12332        99  POPE      H16Y           42.0913696967      -33.7140808776        3.1883322517  MEMB      99              0.0000000000
     12333        99  POPE      H16Z           41.3865258019      -32.0778988847        2.9196811398  MEMB      99              0.0000000000
     12334       100  POPE      N             -41.3148169808       36.0075312759       19.8929475785  MEMB      100             0.0000000000
     12335       100  POPE      HN1           -40.5988698784       35.5053879767       20.4638420917  MEMB      100             0.0000000000
     12336       100  POPE      HN2           -41.4176569428       36.9719297657       20.3039757668  MEMB      100             0.0000000000
     12337       100  POPE      HN3           -42.2454476738       35.5385830937       19.9571807246  MEMB      100             0.0000000000
     12338       100  POPE      C12           -40.8150180307       36.3270308133       18.5222148461  MEMB      100             0.0000000000
     12339       100  POPE      H12A          -41.1475769747       37.3605819903       18.2664659723  MEMB      100             0.0000000000
     12340       100  POPE      H12B          -41.2688310413       35.5929125833       17.8320488908  MEMB      100             0.0000000000
     12341       100  POPE      C11           -39.2786936985       36.2452439105       18.4840736226  MEMB      100             0.0000000000
     12342       100  POPE      H11A          -39.0101467911       36.3923443626       17.4126219401  MEMB      100             0.0000000000
     12343       100  POPE      H11B          -38.9470130962       35.2240322737       18.7936542710  MEMB      100             0.0000000000
     12344       100  POPE      P             -37.0883227171       37.5334824382       19.0047709841  MEMB      100             0.0000000000
     12345       100  POPE      O13           -36.4191529360       36.2263627913       18.8883644254  MEMB      100             0.0000000000
     12346       100  POPE      O14           -36.6489220544       38.4676478492       20.0608916601  MEMB      100             0.0000000000
     12347       100  POPE      O11           -37.1051479491       38.2507405113       17.6060247986  MEMB      100             0.0000000000
     12348       100  POPE      O12           -38.6553874077       37.2462879222       19.2979087358  MEMB      100             0.0000000000
     12349       100  POPE      C1            -37.9737209017       39.3590877411       17.4249595222  MEMB      100             0.0000000000
     12350       100  POPE      HA            -37.6596043165       40.2161531524       18.0679229784  MEMB      100             0.0000000000
     12351       100  POPE      HB            -39.0042699075       39.1118236681       17.7298523808  MEMB      100             0.0000000000
     12352       100  POPE      C2            -37.9998004263       39.7247453848       15.9178512819  MEMB      100             0.0000000000
     12353       100  POPE      HS            -38.7366617617       40.5421738410       15.7595325703  MEMB      100             0.0000000000
     12354       100  POPE      O21           -38.2693353783       38.6346369147       15.0194659489  MEMB      100             0.0000000000
     12355       100  POPE      C21           -39.4143568412       38.0455267462       15.2020776478  MEMB      100             0.0000000000
     12356       100  POPE      O22           -40.2067654938       38.2904320102       16.0875428248  MEMB      100             0.0000000000
     12357       100  POPE      C22           -39.6680345489       37.0293739680       14.1024608581  MEMB      100             0.0000000000
     12358       100  POPE      H2R           -40.7438838101       36.9108145462       13.9608460476  MEMB      100             0.0000000000
     12359       100  POPE      H2S           -39.3030039379       36.0496695678       14.4482875243  MEMB      100             0.0000000000
     12360       100  POPE      C3            -36.6348783666       40.2240113954       15.5202689999  MEMB      100             0.0000000000
     12361       100  POPE      HX            -35.9162302669       39.4153305386       15.7919145908  MEMB      100             0.0000000000
     12362       100  POPE      HY            -36.3418766050       41.1148498278       16.1314896481  MEMB      100             0.0000000000
     12363       100  POPE      O31           -36.5037088548       40.4322791529       14.0978005819  MEMB      100             0.0000000000
     12364       100  POPE      C31           -36.8884183353       41.6167772786       13.7197300745  MEMB      100             0.0000000000
     12365       100  POPE      O32           -37.4627096552       42.4271672842       14.4408003603  MEMB      100             0.0000000000
     12366       100  POPE      C32           -36.4236555685       41.7853860679       12.2256879025  MEMB      100             0.0000000000
     12367       100  POPE      H2X           -36.9291426874       40.9828331080       11.6606612001  MEMB      100             0.0000000000
     12368       100  POPE      H2Y           -35.3287354232       41.8508003357       12.1461709443  MEMB      100             0.0000000000
     12369       100  POPE      C23           -39.0055724032       37.5198156026       12.8078279207  MEMB      100             0.0000000000
     12370       100  POPE      H3R           -37.9048349348       37.4467514754       12.9531826514  MEMB      100             0.0000000000
     12371       100  POPE      H3S           -39.2634594527       38.5979538782       12.6664130076  MEMB      100             0.0000000000
     12372       100  POPE      C24           -39.4101500178       36.7608795512       11.5481894629  MEMB      100             0.0000000000
     12373       100  POPE      H4R           -40.4009204617       37.1221531336       11.2337065121  MEMB      100             0.0000000000
     12374       100  POPE      H4S           -39.4475054267       35.6645070830       11.7178848117  MEMB      100             0.0000000000
     12375       100  POPE      C25           -38.5295569265       37.0826835567       10.3487005159  MEMB      100             0.0000000000
     12376       100  POPE      H5R           -38.3428406257       38.1801610358       10.3729966817  MEMB      100             0.0000000000
     12377       100  POPE      H5S           -39.0908182974       36.8411247875        9.4167551693  MEMB      100             0.0000000000
     12378       100  POPE      C26           -37.2015556312       36.3352953701       10.3709122482  MEMB      100             0.0000000000
     12379       100  POPE      H6R           -37.3387823615       35.2780980579       10.0537086330  MEMB      100             0.0000000000
     12380       100  POPE      H6S           -36.8358764133       36.3058417524       11.4239648342  MEMB      100             0.0000000000
     12381       100  POPE      C27           -36.1467243836       37.1047168441        9.5718574691  MEMB      100             0.0000000000
     12382       100  POPE      H7R           -35.2668828783       37.2433721009       10.2418635510  MEMB      100             0.0000000000
     12383       100  POPE      H7S           -36.5158415978       38.1286690802        9.3390345702  MEMB      100             0.0000000000
     12384       100  POPE      C28           -35.7214763717       36.4757451303        8.2427431879  MEMB      100             0.0000000000
     12385       100  POPE      H8R           -35.2082685242       37.2952993116        7.6764524508  MEMB      100             0.0000000000
     12386       100  POPE      H8S           -36.5828246617       36.1933024939        7.6111706296  MEMB      100             0.0000000000
     12387       100  POPE      C29           -34.8422479905       35.2794682928        8.5102680499  MEMB      100             0.0000000000
     12388       100  POPE      H91           -35.2523064724       34.2797583409        8.4454928365  MEMB      100             0.0000000000
     12389       100  POPE      C210          -33.5732764826       35.3747202352        8.8436250322  MEMB      100             0.0000000000
     12390       100  POPE      H101          -32.8894902643       34.5026950501        8.7972291443  MEMB      100             0.0000000000
     12391       100  POPE      C211          -32.9719916696       36.7168232160        8.9493098081  MEMB      100             0.0000000000
     12392       100  POPE      H11R          -32.0773334000       36.8915515179        9.5720453584  MEMB      100             0.0000000000
     12393       100  POPE      H11S          -33.4959369126       37.6608558576        9.1724047934  MEMB      100             0.0000000000
     12394       100  POPE      C212          -32.5089148392       36.4895326952        7.5323917505  MEMB      100             0.0000000000
     12395       100  POPE      H12R          -31.5295886766       36.1162340803        7.4595819648  MEMB      100             0.0000000000
     12396       100  POPE      H12S          -31.8893089595       37.3848543716        7.8336405774  MEMB      100             0.0000000000
     12397       100  POPE      C213          -33.3475863515       36.4010864858        6.0255539093  MEMB      100             0.0000000000
     12398       100  POPE      H13R          -33.9271744516       37.2526631943        5.6757365336  MEMB      100             0.0000000000
     12399       100  POPE      H13S          -34.0435401201       35.5753263131        6.0334386207  MEMB      100             0.0000000000
     12400       100  POPE      C214          -32.7635803912       36.4831740986        4.4816057993  MEMB      100             0.0000000000
     12401       100  POPE      H14R          -31.7732737541       36.3167425118        4.0757312962  MEMB      100             0.0000000000
     12402       100  POPE      H14S          -31.6999727102       36.4139171354        4.7114320677  MEMB      100             0.0000000000
     12403       100  POPE      C215          -33.1791867120       37.4935748949        3.2788713142  MEMB      100             0.0000000000
     12404       100  POPE      H15R          -34.0580066599       36.8968059317        3.1757061649  MEMB      100             0.0000000000
     12405       100  POPE      H15S          -32.2970975422       37.3119549624        2.6131124069  MEMB      100             0.0000000000
     12406       100  POPE      C216          -33.2864364228       39.0926858407        2.9999636784  MEMB      100             0.0000000000
     12407       100  POPE      H16R          -32.4203335260       39.7861010761        3.1129675175  MEMB      100             0.0000000000
     12408       100  POPE      H16S          -33.6728656035       39.6944775201        3.8219356906  MEMB      100             0.0000000000
     12409       100  POPE      C217          -33.4926431647       39.5384421564        1.6254554640  MEMB      100             0.0000000000
     12410       100  POPE      H17R          -34.3021718260       38.8379927303        1.4681986003  MEMB      100             0.0000000000
     12411       100  POPE      H17S          -32.7066324991       39.3413045423        0.8571666893  MEMB      100             0.0000000000
     12412       100  POPE      C218          -33.6792199978       41.0334370049        1.7337158345  MEMB      100             0.0000000000
     12413       100  POPE      H18R          -32.8162464720       41.5697858462        2.2157710852  MEMB      100             0.0000000000
     12414       100  POPE      H18S          -34.5746805050       41.2948861752        2.3234922597  MEMB      100             0.0000000000
     12415       100  POPE      H18T          -33.7497204809       41.3568612154        0.6853960846  MEMB      100             0.0000000000
     12416       100  POPE      C33           -36.8421082423       43.0229799264       11.4730345316  MEMB      100             0.0000000000
     12417       100  POPE      H3X           -36.2528006302       43.8997441649       11.8473417672  MEMB      100             0.0000000000
     12418       100  POPE      H3Y           -37.9268998685       42.9123651370       11.7631832512  MEMB      100             0.0000000000
     12419       100  POPE      C34           -36.7704487418       43.3017554521        9.9968949517  MEMB      100             0.0000000000
     12420       100  POPE      H4X           -35.7599834518       43.5004669599        9.6497907494  MEMB      100             0.0000000000
     12421       100  POPE      H4Y           -37.1330643118       44.3555600727        9.8337320959  MEMB      100             0.0000000000
     12422       100  POPE      C35           -37.7807001304       42.3856985709        9.2784629554  MEMB      100             0.0000000000
     12423       100  POPE      H5X           -38.3405361827       42.9950606691        8.5409489574  MEMB      100             0.0000000000
     12424       100  POPE      H5Y           -38.5857044329       41.9474930740        9.9223808923  MEMB      100             0.0000000000
     12425       100  POPE      C36           -37.1064807453       41.3499500214        8.5832178536  MEMB      100             0.0000000000
     12426       100  POPE      H6X           -37.8319247161       40.5100714489        8.5145505546  MEMB      100             0.0000000000
     12427       100  POPE      H6Y           -36.2688104478       41.1718696786        9.2976257504  MEMB      100             0.0000000000
     12428       100  POPE      C37           -36.8675761926       42.0334016568        7.2594736986  MEMB      100             0.0000000000
     12429       100  POPE      H7X           -36.4454868146       43.0633781282        7.4126051001  MEMB      100             0.0000000000
     12430       100  POPE      H7Y           -37.8701598897       42.1718016956        6.7806197356  MEMB      100             0.0000000000
     12431       100  POPE      C38           -36.0369445113       41.1505055640        6.3913404092  MEMB      100             0.0000000000
     12432       100  POPE      H8X           -35.2760403899       40.6633259149        7.0450480459  MEMB      100             0.0000000000
     12433       100  POPE      H8Y           -35.5082533407       41.8154238229        5.6798125537  MEMB      100             0.0000000000
     12434       100  POPE      C39           -36.9065533697       40.0764586813        5.7038158704  MEMB      100             0.0000000000
     12435       100  POPE      H9X           -37.7902552644       40.5057179481        5.1832079203  MEMB      100             0.0000000000
     12436       100  POPE      H9Y           -37.2836207088       39.3783268126        6.4862350367  MEMB      100             0.0000000000
     12437       100  POPE      C310          -36.1026379644       39.3029466112        4.6606101973  MEMB      100             0.0000000000
     12438       100  POPE      H10X          -35.1040646253       39.2370279447        5.0627285322  MEMB      100             0.0000000000
     12439       100  POPE      H10Y          -35.9366948677       39.9258395143        3.7630475790  MEMB      100             0.0000000000
     12440       100  POPE      C311          -36.5547342487       37.8622038411        4.3455000391  MEMB      100             0.0000000000
     12441       100  POPE      H11X          -36.5829644765       37.2766116863        5.2884422408  MEMB      100             0.0000000000
     12442       100  POPE      H11Y          -35.8100198809       37.3788503764        3.6855325170  MEMB      100             0.0000000000
     12443       100  POPE      C312          -37.9371009669       37.7524149647        3.7037644999  MEMB      100             0.0000000000
     12444       100  POPE      H12X          -38.6477352690       38.0556143786        4.4968315289  MEMB      100             0.0000000000
     12445       100  POPE      H12Y          -38.1696717799       36.7021263641        3.4021517176  MEMB      100             0.0000000000
     12446       100  POPE      C313          -38.1351339663       38.6933186018        2.5175891247  MEMB      100             0.0000000000
     12447       100  POPE      H13X          -37.9001709449       39.7326966534        2.8313474106  MEMB      100             0.0000000000
     12448       100  POPE      H13Y          -39.2075731918       38.6636129441        2.2207478974  MEMB      100             0.0000000000
     12449       100  POPE      C314          -37.1979281183       38.3398437242        1.3638708058  MEMB      100             0.0000000000
     12450       100  POPE      H14X          -37.3586954982       37.2784157890        1.1164198355  MEMB      100             0.0000000000
     12451       100  POPE      H14Y          -36.1548522716       38.4211600100        1.7218487652  MEMB      100             0.0000000000
     12452       100  POPE      C315          -37.3703082544       39.2291129616        0.1329907303  MEMB      100             0.0000000000
     12453       100  POPE      H15X          -36.6479504955       38.9385831586       -0.6630412750  MEMB      100             0.0000000000
     12454       100  POPE      H15Y          -37.0984251042       40.2653692662        0.4415158719  MEMB      100             0.0000000000
     12455       100  POPE      C316          -38.7806394117       39.1963811821       -0.4585213126  MEMB      100             0.0000000000
     12456       100  POPE      H16X          -38.7951714574       39.7527827338       -1.4130414034  MEMB      100             0.0000000000
     12457       100  POPE      H16Y          -39.5127669286       39.6470709714        0.2413964940  MEMB      100             0.0000000000
     12458       100  POPE      H16Z          -39.1229938994       38.1757774819       -0.6919238655  MEMB      100             0.0000000000
     12459       101  PMPG      C13            -2.7623288679       -3.2629293843      -19.0085022031  MEMB      101             0.0000000000
     12460       101  PMPG      H13A           -2.4987416682       -3.3496700258      -20.0795604745  MEMB      101             0.0000000000
     12461       101  PMPG      H13B           -3.4846218686       -4.0807344741      -18.7672261428  MEMB      101             0.0000000000
     12462       101  PMPG      OC3            -3.4030742293       -1.9943226915      -18.8351412887  MEMB      101             0.0000000000
     12463       101  PMPG      HO3            -2.7832511410       -1.3172315305      -19.1375657243  MEMB      101             0.0000000000
     12464       101  PMPG      C12            -1.4735012789       -3.4526980706      -18.1450541053  MEMB      101             0.0000000000
     12465       101  PMPG      H12A           -0.9914721406       -4.4108428278      -18.4489060694  MEMB      101             0.0000000000
     12466       101  PMPG      OC2            -1.7938614652       -3.5508037331      -16.7624682424  MEMB      101             0.0000000000
     12467       101  PMPG      HO2            -0.9394641847       -3.4742118488      -16.3287816121  MEMB      101             0.0000000000
     12468       101  PMPG      C11            -0.3880652897       -2.3573418586      -18.2782674933  MEMB      101             0.0000000000
     12469       101  PMPG      H11A            0.2510052175       -2.4761445135      -17.3696212797  MEMB      101             0.0000000000
     12470       101  PMPG      H11B           -0.8626741456       -1.3452761954      -18.2348601520  MEMB      101             0.0000000000
     12471       101  PMPG      P               1.3157357998       -1.3420679150      -19.9719037590  MEMB      101             0.0000000000
     12472       101  PMPG      O13             0.4648338108       -0.3786980541      -20.6982172305  MEMB      101             0.0000000000
     12473       101  PMPG      O14             2.5544055709       -1.7945855011      -20.6415150319  MEMB      101             0.0000000000
     12474       101  PMPG      O11             1.8098571824       -0.7432694156      -18.6127694406  MEMB      101             0.0000000000
     12475       101  PMPG      O12             0.4114853391       -2.5514956214      -19.4634302758  MEMB      101             0.0000000000
     12476       101  PMPG      C1              2.9505507058       -1.1486891595      -17.8537621237  MEMB      101             0.0000000000
     12477       101  PMPG      HA              3.7155553767       -0.4339152483      -18.0789151109  MEMB      101             0.0000000000
     12478       101  PMPG      HB              3.3166852570       -2.1307695954      -18.1899730571  MEMB      101             0.0000000000
     12479       101  PMPG      C2              2.9077731253       -1.2647274932      -16.2543100875  MEMB      101             0.0000000000
     12480       101  PMPG      HS              1.9661702652       -1.8844103904      -16.2028607276  MEMB      101             0.0000000000
     12481       101  PMPG      O21             2.9465923525       -0.1119048339      -15.4241125215  MEMB      101             0.0000000000
     12482       101  PMPG      C21             2.3495672358       -0.2089233826      -14.2522695156  MEMB      101             0.0000000000
     12483       101  PMPG      O22             1.6005396906       -1.1763083550      -14.0986806208  MEMB      101             0.0000000000
     12484       101  PMPG      C22             2.2346757495        1.2661671311      -13.5488481708  MEMB      101             0.0000000000
     12485       101  PMPG      H2R             2.0066934614        2.1411530759      -14.2208072969  MEMB      101             0.0000000000
     12486       101  PMPG      H2S             3.0825324099        1.6861993175      -13.0565888082  MEMB      101             0.0000000000
     12487       101  PMPG      C3              4.0864400196       -1.9192546011      -15.5784630840  MEMB      101             0.0000000000
     12488       101  PMPG      HX              4.7743938314       -1.0421997179      -15.7197065629  MEMB      101             0.0000000000
     12489       101  PMPG      HY              4.3913523671       -2.7373357007      -16.2118376088  MEMB      101             0.0000000000
     12490       101  PMPG      O31             3.9763556657       -2.1994326421      -14.1269869203  MEMB      101             0.0000000000
     12491       101  PMPG      C31             3.1137735541       -3.2089741851      -13.9106517604  MEMB      101             0.0000000000
     12492       101  PMPG      O32             2.8573316372       -4.0226441703      -14.7689095603  MEMB      101             0.0000000000
     12493       101  PMPG      C32             2.4155108643       -3.1209058957      -12.5171948672  MEMB      101             0.0000000000
     12494       101  PMPG      H2X             1.9179546418       -2.1586001172      -12.2773711354  MEMB      101             0.0000000000
     12495       101  PMPG      H2Y             3.2132088695       -3.1947313708      -11.7667346063  MEMB      101             0.0000000000
     12496       101  PMPG      C23             1.1081244866        1.5339430837      -12.5525254918  MEMB      101             0.0000000000
     12497       101  PMPG      H3R             0.1005751773        1.5297574708      -12.5260989184  MEMB      101             0.0000000000
     12498       101  PMPG      H3S             0.7535609771        2.5024681592      -12.8900083366  MEMB      101             0.0000000000
     12499       101  PMPG      C24             0.8135318472        0.7949019197      -11.3008951348  MEMB      101             0.0000000000
     12500       101  PMPG      H4R             0.8223325147       -0.2888666313      -11.4169431189  MEMB      101             0.0000000000
     12501       101  PMPG      H4S            -0.1903618965        0.9714481268      -10.7849950427  MEMB      101             0.0000000000
     12502       101  PMPG      C25             1.8861666518        1.4810507704      -10.6111507601  MEMB      101             0.0000000000
     12503       101  PMPG      H5R             1.8728573727        2.4784320569      -10.8653468967  MEMB      101             0.0000000000
     12504       101  PMPG      H5S             2.8837769266        1.4465364598      -11.0757594634  MEMB      101             0.0000000000
     12505       101  PMPG      C26             1.7107386277        1.3594767305       -9.1847643232  MEMB      101             0.0000000000
     12506       101  PMPG      H6R             0.6816300519        1.4443300247       -8.7680868728  MEMB      101             0.0000000000
     12507       101  PMPG      H6S             2.4025345584        1.9987025020       -8.6020679811  MEMB      101             0.0000000000
     12508       101  PMPG      C27             2.2420353732        0.0474487012       -9.1889047034  MEMB      101             0.0000000000
     12509       101  PMPG      H7R             3.1757614182        0.0643374980       -9.8246824528  MEMB      101             0.0000000000
     12510       101  PMPG      H7S             1.5677973178       -0.7310445304       -9.5983705580  MEMB      101             0.0000000000
     12511       101  PMPG      C28             2.4559786854       -0.1402096738       -7.7936508434  MEMB      101             0.0000000000
     12512       101  PMPG      H8R             1.6171834779       -0.1261976081       -7.0952076947  MEMB      101             0.0000000000
     12513       101  PMPG      H8S             3.2439069846        0.5908137806       -7.4428448072  MEMB      101             0.0000000000
     12514       101  PMPG      C29             2.7959576544       -1.4943802379       -8.0154870649  MEMB      101             0.0000000000
     12515       101  PMPG      H9R             2.2277438570       -2.3934072755       -8.2937415509  MEMB      101             0.0000000000
     12516       101  PMPG      C217            4.1699112460       -1.6173234511       -8.4966217977  MEMB      101             0.0000000000
     12517       101  PMPG      H17R            4.4884834196       -2.5197187295       -8.9884799267  MEMB      101             0.0000000000
     12518       101  PMPG      H17S            4.4902875234       -0.8104018867       -9.0490158396  MEMB      101             0.0000000000
     12519       101  PMPG      C210            3.6750603995       -1.6240175576       -6.9843643898  MEMB      101             0.0000000000
     12520       101  PMPG      H10R            3.3874744649       -2.4553746246       -6.4889312075  MEMB      101             0.0000000000
     12521       101  PMPG      C211            3.9550542597       -0.8134208264       -5.7636807937  MEMB      101             0.0000000000
     12522       101  PMPG      H11R            4.3810670327       -1.5594277386       -5.0826326804  MEMB      101             0.0000000000
     12523       101  PMPG      H11S            4.7094420855       -0.2999276557       -6.2116795752  MEMB      101             0.0000000000
     12524       101  PMPG      C212            3.3483935418       -0.5946809286       -4.4179233355  MEMB      101             0.0000000000
     12525       101  PMPG      H12R            3.2853595123       -1.3703756789       -3.6349092706  MEMB      101             0.0000000000
     12526       101  PMPG      H12S            2.3904801928       -0.3103564474       -4.8529056976  MEMB      101             0.0000000000
     12527       101  PMPG      C213            4.1354112574        0.4083351700       -3.6426377154  MEMB      101             0.0000000000
     12528       101  PMPG      H13R            4.6872810277        0.9178149427       -4.3091239607  MEMB      101             0.0000000000
     12529       101  PMPG      H13S            4.8103413259        0.3528429325       -2.7677226480  MEMB      101             0.0000000000
     12530       101  PMPG      C214            3.2818456945        1.4771560487       -3.6523929350  MEMB      101             0.0000000000
     12531       101  PMPG      H14R            2.4871504305        0.9738505743       -3.0797134063  MEMB      101             0.0000000000
     12532       101  PMPG      H14S            3.0503993731        1.7147288409       -4.7337255288  MEMB      101             0.0000000000
     12533       101  PMPG      C215            3.6282503839        2.6987785712       -2.8899686021  MEMB      101             0.0000000000
     12534       101  PMPG      H15R            3.8734307595        3.6683094803       -3.4327752722  MEMB      101             0.0000000000
     12535       101  PMPG      H15S            4.3665248864        2.1088271350       -2.4166705643  MEMB      101             0.0000000000
     12536       101  PMPG      C216            3.3928468252        2.8913847980       -1.4983172138  MEMB      101             0.0000000000
     12537       101  PMPG      H16R            2.3883990952        2.5026838327       -1.7569435943  MEMB      101             0.0000000000
     12538       101  PMPG      H16S            3.6044327595        3.9880060734       -1.3376016748  MEMB      101             0.0000000000
     12539       101  PMPG      H16T            3.5771848340        2.3156911187       -0.6165399594  MEMB      101             0.0000000000
     12540       101  PMPG      C33             1.2667248543       -4.1601624207      -12.4243454058  MEMB      101             0.0000000000
     12541       101  PMPG      H3X             1.6296407613       -5.1111755825      -12.8461587590  MEMB      101             0.0000000000
     12542       101  PMPG      H3Y             0.4711788121       -4.0494734768      -13.1460039179  MEMB      101             0.0000000000
     12543       101  PMPG      C34             0.7993128017       -4.3738637000      -10.9731714356  MEMB      101             0.0000000000
     12544       101  PMPG      H4X             1.6373154847       -4.0956048489      -10.3542609991  MEMB      101             0.0000000000
     12545       101  PMPG      H4Y             0.5546900979       -5.4328037185      -10.7292670532  MEMB      101             0.0000000000
     12546       101  PMPG      C35            -0.2049985092       -3.3734497275      -10.4734695656  MEMB      101             0.0000000000
     12547       101  PMPG      H5X            -1.0423498529       -3.4746794866      -11.1708673408  MEMB      101             0.0000000000
     12548       101  PMPG      H5Y             0.1897559795       -2.3353581285      -10.5103375056  MEMB      101             0.0000000000
     12549       101  PMPG      C36            -0.7150030192       -3.6322939872       -9.0715949244  MEMB      101             0.0000000000
     12550       101  PMPG      H6X             0.0822799592       -3.5727676490       -8.2934860921  MEMB      101             0.0000000000
     12551       101  PMPG      H6Y            -1.1382314714       -4.6640400976       -9.0630245759  MEMB      101             0.0000000000
     12552       101  PMPG      C37            -1.8444589205       -2.6432971718       -8.7924805464  MEMB      101             0.0000000000
     12553       101  PMPG      H7X            -2.5567766003       -2.7255318020       -9.6452432506  MEMB      101             0.0000000000
     12554       101  PMPG      H7Y            -1.4868604623       -1.5891422969       -8.7482265105  MEMB      101             0.0000000000
     12555       101  PMPG      C38            -2.5132886744       -3.0257415057       -7.4892679248  MEMB      101             0.0000000000
     12556       101  PMPG      H8X            -2.6745585022       -4.1276159731       -7.5473347344  MEMB      101             0.0000000000
     12557       101  PMPG      H8Y            -3.5245402430       -2.5789865913       -7.3750372768  MEMB      101             0.0000000000
     12558       101  PMPG      C39            -1.6183246057       -2.6530715889       -6.2950107995  MEMB      101             0.0000000000
     12559       101  PMPG      H9X            -1.1577294214       -1.6438686605       -6.3989063162  MEMB      101             0.0000000000
     12560       101  PMPG      H9Y            -0.7718921165       -3.3699107337       -6.2451741602  MEMB      101             0.0000000000
     12561       101  PMPG      C310           -2.4092529834       -2.7271999598       -4.9945678500  MEMB      101             0.0000000000
     12562       101  PMPG      H10X           -3.2608294945       -3.4088020751       -5.2128608126  MEMB      101             0.0000000000
     12563       101  PMPG      H10Y           -2.8158964380       -1.7155378240       -4.7572200637  MEMB      101             0.0000000000
     12564       101  PMPG      C311           -1.6064099889       -3.2786521215       -3.8081317807  MEMB      101             0.0000000000
     12565       101  PMPG      H11X           -1.0512417182       -4.2023944977       -4.0839121836  MEMB      101             0.0000000000
     12566       101  PMPG      H11Y           -2.3211112749       -3.5617474649       -3.0040857254  MEMB      101             0.0000000000
     12567       101  PMPG      C312           -0.6293941521       -2.2209795750       -3.2846829602  MEMB      101             0.0000000000
     12568       101  PMPG      H12X           -1.1626913809       -1.2456988831       -3.3116165784  MEMB      101             0.0000000000
     12569       101  PMPG      H12Y            0.2341871943       -2.1801597298       -3.9850760000  MEMB      101             0.0000000000
     12570       101  PMPG      C313           -0.1947338202       -2.4027348389       -1.8271851356  MEMB      101             0.0000000000
     12571       101  PMPG      H13X            0.4987499735       -3.2688575704       -1.7327310202  MEMB      101             0.0000000000
     12572       101  PMPG      H13Y           -1.1071802851       -2.6377224002       -1.2329126179  MEMB      101             0.0000000000
     12573       101  PMPG      C314            0.4415059283       -1.1435187502       -1.2024716545  MEMB      101             0.0000000000
     12574       101  PMPG      H14X            1.3391519747       -0.7990531041       -1.7599751528  MEMB      101             0.0000000000
     12575       101  PMPG      H14Y            0.8012428186       -1.4532034719       -0.1977158421  MEMB      101             0.0000000000
     12576       101  PMPG      C315           -0.5162164081        0.0413123951       -0.9929438116  MEMB      101             0.0000000000
     12577       101  PMPG      H15X           -1.3628925664       -0.2774044745       -0.3458297745  MEMB      101             0.0000000000
     12578       101  PMPG      H15Y           -0.9351786924        0.4245290940       -1.9554372975  MEMB      101             0.0000000000
     12579       101  PMPG      C316            0.1408026586        1.2065212352       -0.2726357671  MEMB      101             0.0000000000
     12580       101  PMPG      H16X            0.5164207411        0.9314399750        0.7318009883  MEMB      101             0.0000000000
     12581       101  PMPG      H16Y           -0.6245249544        1.9982181630       -0.1451958984  MEMB      101             0.0000000000
     12582       101  PMPG      H16Z            0.9856416210        1.5945371562       -0.8675753928  MEMB      101             0.0000000000
     12583       102  POPE      N               4.5000371584        7.5361669945      -21.1425768877  MEMB      102             0.0000000000
     12584       102  POPE      HN1             5.3419236085        7.6453798887      -20.5469718846  MEMB      102             0.0000000000
     12585       102  POPE      HN2             4.6922900072        6.8615932786      -21.9058332387  MEMB      102             0.0000000000
     12586       102  POPE      HN3             4.2315077417        8.4324236794      -21.6003350353  MEMB      102             0.0000000000
     12587       102  POPE      C12             3.2706587226        7.0972689120      -20.3793701444  MEMB      102             0.0000000000
     12588       102  POPE      H12A            2.4831985020        6.9240945765      -21.1441331254  MEMB      102             0.0000000000
     12589       102  POPE      H12B            2.9686423503        7.9256564098      -19.7067663813  MEMB      102             0.0000000000
     12590       102  POPE      C11             3.3857714846        5.7912052539      -19.5888792433  MEMB      102             0.0000000000
     12591       102  POPE      H11A            3.8246618878        6.0047503050      -18.5823751271  MEMB      102             0.0000000000
     12592       102  POPE      H11B            4.0091532495        5.0359329940      -20.1145244754  MEMB      102             0.0000000000
     12593       102  POPE      P               1.3407857768        4.8681288350      -18.1481239416  MEMB      102             0.0000000000
     12594       102  POPE      O13             0.2451254571        3.9342181608      -18.4547253265  MEMB      102             0.0000000000
     12595       102  POPE      O14             0.9966894182        6.1598292986      -17.5099680642  MEMB      102             0.0000000000
     12596       102  POPE      O11             2.4860005591        4.1651477016      -17.3333160624  MEMB      102             0.0000000000
     12597       102  POPE      O12             2.0795199895        5.2450551188      -19.5012538616  MEMB      102             0.0000000000
     12598       102  POPE      C1              3.1596391110        3.1101180289      -18.0193203979  MEMB      102             0.0000000000
     12599       102  POPE      HA              4.0735495060        3.4748830600      -18.5159726290  MEMB      102             0.0000000000
     12600       102  POPE      HB              2.4937996346        2.5269542724      -18.7136208989  MEMB      102             0.0000000000
     12601       102  POPE      C2              3.6354354332        2.0969846010      -17.0500407749  MEMB      102             0.0000000000
     12602       102  POPE      HS              3.9765422253        1.2243088316      -17.6073736797  MEMB      102             0.0000000000
     12603       102  POPE      O21             2.5000644988        1.9478318757      -16.1289506961  MEMB      102             0.0000000000
     12604       102  POPE      C21             1.2156521320        1.3263194837      -16.3895291038  MEMB      102             0.0000000000
     12605       102  POPE      O22             0.8437523903        1.1011842740      -17.4885728663  MEMB      102             0.0000000000
     12606       102  POPE      C22             0.1764861890        0.7504009404      -15.2983293499  MEMB      102             0.0000000000
     12607       102  POPE      H2R             0.2519975140        0.3329526443      -14.2666004769  MEMB      102             0.0000000000
     12608       102  POPE      H2S            -0.1684522792       -0.2282937026      -15.6565571131  MEMB      102             0.0000000000
     12609       102  POPE      C3              5.0162189697        2.5097127417      -16.3658554046  MEMB      102             0.0000000000
     12610       102  POPE      HX              5.7652332131        3.0188808121      -17.0241726016  MEMB      102             0.0000000000
     12611       102  POPE      HY              5.5376646198        1.5574796785      -16.1638538053  MEMB      102             0.0000000000
     12612       102  POPE      O31             4.8664790693        3.1828636125      -15.1296921434  MEMB      102             0.0000000000
     12613       102  POPE      C31             4.7674426843        4.4886932338      -15.1990987227  MEMB      102             0.0000000000
     12614       102  POPE      O32             4.9149651044        5.2053173997      -16.1717254002  MEMB      102             0.0000000000
     12615       102  POPE      C32             4.5709918727        4.9217935624      -13.7480440086  MEMB      102             0.0000000000
     12616       102  POPE      H2X             5.3326649006        4.3900293675      -13.1363400660  MEMB      102             0.0000000000
     12617       102  POPE      H2Y             3.5667469265        4.5817706855      -13.4255541318  MEMB      102             0.0000000000
     12618       102  POPE      C23            -0.6400723868        1.8566731448      -14.8808376312  MEMB      102             0.0000000000
     12619       102  POPE      H3R            -0.8876314914        2.4227499456      -15.7667748428  MEMB      102             0.0000000000
     12620       102  POPE      H3S             0.0052831407        2.6814390348      -14.5260111225  MEMB      102             0.0000000000
     12621       102  POPE      C24            -1.5681685148        1.2819224009      -13.8129208336  MEMB      102             0.0000000000
     12622       102  POPE      H4R            -1.1900306739        0.4706676542      -13.1049798963  MEMB      102             0.0000000000
     12623       102  POPE      H4S            -2.1985612282        0.5085005328      -14.2846772984  MEMB      102             0.0000000000
     12624       102  POPE      C25            -1.9643133213        2.5232162233      -12.9410259958  MEMB      102             0.0000000000
     12625       102  POPE      H5R            -2.4986250843        2.0730831151      -12.1099101985  MEMB      102             0.0000000000
     12626       102  POPE      H5S            -2.5263752586        3.0597114945      -13.7367998187  MEMB      102             0.0000000000
     12627       102  POPE      C26            -1.1379698083        3.7157016768      -12.2210807869  MEMB      102             0.0000000000
     12628       102  POPE      H6R            -1.8349082228        4.4890692648      -11.8517734722  MEMB      102             0.0000000000
     12629       102  POPE      H6S            -0.4304746552        4.1580853582      -12.9576176606  MEMB      102             0.0000000000
     12630       102  POPE      C27            -0.3655677190        3.5583989789      -10.8525329201  MEMB      102             0.0000000000
     12631       102  POPE      H7R             0.4864704592        3.3410827985      -11.3997382399  MEMB      102             0.0000000000
     12632       102  POPE      H7S            -0.7039055672        2.7365402369      -10.2108587070  MEMB      102             0.0000000000
     12633       102  POPE      C28             0.7354029286        4.5466544864      -10.2242964541  MEMB      102             0.0000000000
     12634       102  POPE      H8R             0.0006986968        4.9776361227       -9.5364946511  MEMB      102             0.0000000000
     12635       102  POPE      H8S             1.0140666665        5.1664995397      -11.1057307919  MEMB      102             0.0000000000
     12636       102  POPE      C29             2.0883240418        4.2412760257       -9.4928774657  MEMB      102             0.0000000000
     12637       102  POPE      H91             2.8800056133        3.6189555806       -9.9619888836  MEMB      102             0.0000000000
     12638       102  POPE      C210            2.4741025427        4.5195355396       -8.2633913429  MEMB      102             0.0000000000
     12639       102  POPE      H101            3.4151765413        4.0779349279       -7.8758864159  MEMB      102             0.0000000000
     12640       102  POPE      C211            1.5992254905        5.2446313399       -7.3303433217  MEMB      102             0.0000000000
     12641       102  POPE      H11R            0.7171477697        5.6620009024       -7.8518557672  MEMB      102             0.0000000000
     12642       102  POPE      H11S            2.2106717828        6.0793548636       -6.9663755589  MEMB      102             0.0000000000
     12643       102  POPE      C212            1.0248742743        4.4949570006       -6.1665083227  MEMB      102             0.0000000000
     12644       102  POPE      H12R            0.3476173555        3.6601887427       -6.4761698333  MEMB      102             0.0000000000
     12645       102  POPE      H12S            0.4394427335        5.2289215486       -5.5639121832  MEMB      102             0.0000000000
     12646       102  POPE      C213            2.0377717057        3.9707097471       -5.2067458187  MEMB      102             0.0000000000
     12647       102  POPE      H13R            2.5901348942        4.7862488107       -4.6954142654  MEMB      102             0.0000000000
     12648       102  POPE      H13S            2.8167195688        3.3805427912       -5.7585889807  MEMB      102             0.0000000000
     12649       102  POPE      C214            1.0942073747        3.2180442274       -4.2587848408  MEMB      102             0.0000000000
     12650       102  POPE      H14R            1.5584249393        2.5854412431       -3.6430841354  MEMB      102             0.0000000000
     12651       102  POPE      H14S            0.6408690659        2.3035104973       -4.6782209611  MEMB      102             0.0000000000
     12652       102  POPE      C215            0.5617948610        3.8721358617       -2.9549320041  MEMB      102             0.0000000000
     12653       102  POPE      H15R            0.1650744225        3.0131671750       -2.3409639456  MEMB      102             0.0000000000
     12654       102  POPE      H15S           -0.1011661034        4.6393518682       -3.3160541317  MEMB      102             0.0000000000
     12655       102  POPE      C216            1.4643748692        4.6931208687       -2.0290894490  MEMB      102             0.0000000000
     12656       102  POPE      H16R            2.3942126523        5.0383293897       -2.5179063125  MEMB      102             0.0000000000
     12657       102  POPE      H16S            1.5642048900        3.9359723216       -1.2395712997  MEMB      102             0.0000000000
     12658       102  POPE      C217            1.1984627609        5.3351783947       -0.6833247295  MEMB      102             0.0000000000
     12659       102  POPE      H17R            0.6777609963        6.2128641110       -1.0563529012  MEMB      102             0.0000000000
     12660       102  POPE      H17S            2.2006980242        5.5930636818       -0.2321640751  MEMB      102             0.0000000000
     12661       102  POPE      C218            0.4214342806        4.4566839007        0.3311092384  MEMB      102             0.0000000000
     12662       102  POPE      H18R            1.0299731742        3.6058507655        0.7471224147  MEMB      102             0.0000000000
     12663       102  POPE      H18S           -0.4371406970        3.9795138822       -0.1912523880  MEMB      102             0.0000000000
     12664       102  POPE      H18T            0.1118283542        5.1338503575        1.1370762550  MEMB      102             0.0000000000
     12665       102  POPE      C33             4.6779990086        6.4542939907      -13.6440859062  MEMB      102             0.0000000000
     12666       102  POPE      H3X             3.9239645214        6.8607597475      -14.3530228883  MEMB      102             0.0000000000
     12667       102  POPE      H3Y             5.6886143083        6.7718708876      -13.9986984757  MEMB      102             0.0000000000
     12668       102  POPE      C34             4.3710974076        7.0689275499      -12.2614762186  MEMB      102             0.0000000000
     12669       102  POPE      H4X             3.3629183561        6.7564070167      -11.9173220809  MEMB      102             0.0000000000
     12670       102  POPE      H4Y             4.3013908585        8.1738388090      -12.3825642156  MEMB      102             0.0000000000
     12671       102  POPE      C35             5.4552486554        6.6515022349      -11.2466787434  MEMB      102             0.0000000000
     12672       102  POPE      H5X             6.4431362273        7.0263122816      -11.5943094870  MEMB      102             0.0000000000
     12673       102  POPE      H5Y             5.4641246643        5.5437389121      -11.2534660686  MEMB      102             0.0000000000
     12674       102  POPE      C36             5.2938363068        7.0165739197       -9.7687017560  MEMB      102             0.0000000000
     12675       102  POPE      H6X             6.1368895899        6.6870104483       -9.1414637525  MEMB      102             0.0000000000
     12676       102  POPE      H6Y             4.3466831847        6.5558238221       -9.3877668624  MEMB      102             0.0000000000
     12677       102  POPE      C37             5.2265463577        8.4839589268       -9.5138175177  MEMB      102             0.0000000000
     12678       102  POPE      H7X             4.1770976540        8.4881299743       -9.8435708345  MEMB      102             0.0000000000
     12679       102  POPE      H7Y             5.7970940710        9.1602515633      -10.2012583549  MEMB      102             0.0000000000
     12680       102  POPE      C38             5.3493315438        8.8920477545       -8.0240304221  MEMB      102             0.0000000000
     12681       102  POPE      H8X             5.1758889906        9.9521561884       -7.9707054010  MEMB      102             0.0000000000
     12682       102  POPE      H8Y             6.3837339453        8.8137019628       -7.6623653349  MEMB      102             0.0000000000
     12683       102  POPE      C39             4.1530302919        8.5971420707       -7.0820209837  MEMB      102             0.0000000000
     12684       102  POPE      H9X             4.3252938711        7.6570779732       -6.5430660966  MEMB      102             0.0000000000
     12685       102  POPE      H9Y             3.2454428319        8.4633246498       -7.7191238166  MEMB      102             0.0000000000
     12686       102  POPE      C310            3.7880050999        9.7582558370       -6.1038422661  MEMB      102             0.0000000000
     12687       102  POPE      H10X            3.3364373353       10.6067835740       -6.6777134845  MEMB      102             0.0000000000
     12688       102  POPE      H10Y            4.6918594205       10.1981009600       -5.6365976830  MEMB      102             0.0000000000
     12689       102  POPE      C311            2.7071666678        9.3673598191       -5.0754508615  MEMB      102             0.0000000000
     12690       102  POPE      H11X            1.9371081964        8.7592407684       -5.6047353122  MEMB      102             0.0000000000
     12691       102  POPE      H11Y            2.2207384173       10.2999413781       -4.7060774515  MEMB      102             0.0000000000
     12692       102  POPE      C312            3.1237232580        8.5604881363       -3.8355531912  MEMB      102             0.0000000000
     12693       102  POPE      H12X            3.3080313985        7.4974438971       -4.0743827748  MEMB      102             0.0000000000
     12694       102  POPE      H12Y            2.2131348655        8.4876912288       -3.2160192814  MEMB      102             0.0000000000
     12695       102  POPE      C313            4.2775858027        9.1428222738       -3.0029794052  MEMB      102             0.0000000000
     12696       102  POPE      H13X            5.1969405150        9.2936147699       -3.5939916998  MEMB      102             0.0000000000
     12697       102  POPE      H13Y            4.5162989145        8.3700566838       -2.2303448864  MEMB      102             0.0000000000
     12698       102  POPE      C314            3.8499960802       10.3422621970       -2.1658822069  MEMB      102             0.0000000000
     12699       102  POPE      H14X            3.4466709788       11.1808878774       -2.7881010750  MEMB      102             0.0000000000
     12700       102  POPE      H14Y            4.7411956107       10.7498071443       -1.6303245883  MEMB      102             0.0000000000
     12701       102  POPE      C315            2.8663588115        9.6816224258       -1.1750255556  MEMB      102             0.0000000000
     12702       102  POPE      H15X            3.3463484176        8.8530679882       -0.6416278141  MEMB      102             0.0000000000
     12703       102  POPE      H15Y            1.9017162589        9.4261967202       -1.6863127159  MEMB      102             0.0000000000
     12704       102  POPE      C316            2.4706451194       10.4703874066       -0.0331180622  MEMB      102             0.0000000000
     12705       102  POPE      H16X            1.8014138375       10.2107109475        0.7978207286  MEMB      102             0.0000000000
     12706       102  POPE      H16Y            1.7341928257       10.9319259966       -0.6768376553  MEMB      102             0.0000000000
     12707       102  POPE      H16Z            3.3457439180       11.0370138317        0.2735738086  MEMB      102             0.0000000000
     12708       103  PMPE      N              -5.0422045972        6.4731348763      -17.9619114575  MEMB      103             0.0000000000
     12709       103  PMPE      HN1            -5.4203742517        7.1441132052      -17.2535360044  MEMB      103             0.0000000000
     12710       103  PMPE      HN2            -4.1141633695        6.8845327915      -18.1606809989  MEMB      103             0.0000000000
     12711       103  PMPE      HN3            -5.6452486630        6.5533204703      -18.8081066512  MEMB      103             0.0000000000
     12712       103  PMPE      C12            -4.8399143189        5.3053833992      -17.1221264308  MEMB      103             0.0000000000
     12713       103  PMPE      H12A           -5.1034713407        5.5568848619      -16.0619074496  MEMB      103             0.0000000000
     12714       103  PMPE      H12B           -3.7588883574        5.0458734101      -17.1828814666  MEMB      103             0.0000000000
     12715       103  PMPE      C11            -5.8614846601        4.4341548964      -17.7467462713  MEMB      103             0.0000000000
     12716       103  PMPE      H11A           -6.8623865059        4.9246476813      -17.6093448637  MEMB      103             0.0000000000
     12717       103  PMPE      H11B           -5.8363904376        3.4670754299      -17.2193454125  MEMB      103             0.0000000000
     12718       103  PMPE      P              -6.5664547234        3.4430902947      -20.0141076390  MEMB      103             0.0000000000
     12719       103  PMPE      O13            -5.8004343392        2.3305086576      -20.5811137197  MEMB      103             0.0000000000
     12720       103  PMPE      O14            -7.2829562797        4.3815961156      -20.8985598905  MEMB      103             0.0000000000
     12721       103  PMPE      O11            -7.5681424509        2.9253918587      -18.9365978056  MEMB      103             0.0000000000
     12722       103  PMPE      O12            -5.5916404716        4.2981281297      -19.1386919208  MEMB      103             0.0000000000
     12723       103  PMPE      C1             -8.5310528422        1.9798656418      -19.4058293109  MEMB      103             0.0000000000
     12724       103  PMPE      HA             -8.1881979405        1.3397530379      -20.2637180764  MEMB      103             0.0000000000
     12725       103  PMPE      HB             -9.4467382433        2.5053786137      -19.7405832787  MEMB      103             0.0000000000
     12726       103  PMPE      C2             -8.8388232530        1.0330485478      -18.2515081988  MEMB      103             0.0000000000
     12727       103  PMPE      HS             -9.7456185226        0.4682746015      -18.5665350035  MEMB      103             0.0000000000
     12728       103  PMPE      O21            -9.0128883878        1.8231990651      -17.0260123756  MEMB      103             0.0000000000
     12729       103  PMPE      C21           -10.2341179168        2.3766553509      -16.8713757201  MEMB      103             0.0000000000
     12730       103  PMPE      O22           -11.1771871429        2.0916800125      -17.5739107618  MEMB      103             0.0000000000
     12731       103  PMPE      C22           -10.3256329716        3.3508745341      -15.6423804157  MEMB      103             0.0000000000
     12732       103  PMPE      H2R            -9.9121945995        2.9953950685      -14.7199872925  MEMB      103             0.0000000000
     12733       103  PMPE      H2S           -11.3662355116        3.4528149399      -15.3006630523  MEMB      103             0.0000000000
     12734       103  PMPE      C3             -7.6490631142        0.0147055407      -18.1663568229  MEMB      103             0.0000000000
     12735       103  PMPE      HX             -7.4305185770       -0.3469671521      -19.1970269238  MEMB      103             0.0000000000
     12736       103  PMPE      HY             -7.9049783853       -0.9078468936      -17.6777052002  MEMB      103             0.0000000000
     12737       103  PMPE      O31            -6.4698932259        0.5872098841      -17.5683393623  MEMB      103             0.0000000000
     12738       103  PMPE      C31            -6.2579667411        0.2434681350      -16.3129179220  MEMB      103             0.0000000000
     12739       103  PMPE      O32            -6.8556539344       -0.6019917372      -15.6787863075  MEMB      103             0.0000000000
     12740       103  PMPE      C32            -5.0839913763        1.0911649074      -15.7738878062  MEMB      103             0.0000000000
     12741       103  PMPE      H2X            -4.7734650036        1.7876042426      -16.5735098497  MEMB      103             0.0000000000
     12742       103  PMPE      H2Y            -4.2761869766        0.3745605783      -15.5534099482  MEMB      103             0.0000000000
     12743       103  PMPE      C23            -9.3523927155        4.5198000414      -15.6425997090  MEMB      103             0.0000000000
     12744       103  PMPE      H3R            -9.8055726947        5.1993122396      -16.3813450608  MEMB      103             0.0000000000
     12745       103  PMPE      H3S            -8.3619408870        4.1034170100      -15.9472367872  MEMB      103             0.0000000000
     12746       103  PMPE      C24            -9.2306919906        5.3345591742      -14.3393566109  MEMB      103             0.0000000000
     12747       103  PMPE      H4R           -10.2684412142        5.6063122126      -14.0107519356  MEMB      103             0.0000000000
     12748       103  PMPE      H4S            -8.5811628930        6.1919107204      -14.5427719027  MEMB      103             0.0000000000
     12749       103  PMPE      C25            -8.5937866266        4.7293912717      -13.1132474017  MEMB      103             0.0000000000
     12750       103  PMPE      H5R            -7.5950210385        4.2692916671      -13.3192020753  MEMB      103             0.0000000000
     12751       103  PMPE      H5S            -9.4687871517        4.0554094668      -13.0346405344  MEMB      103             0.0000000000
     12752       103  PMPE      C26            -8.6884958487        5.6104873456      -11.8417389076  MEMB      103             0.0000000000
     12753       103  PMPE      H6R            -9.7823909295        5.7164018305      -11.6587375971  MEMB      103             0.0000000000
     12754       103  PMPE      H6S            -8.1075805872        6.4997297791      -12.0779143435  MEMB      103             0.0000000000
     12755       103  PMPE      C27            -8.0610901809        5.1610152898      -10.5294851961  MEMB      103             0.0000000000
     12756       103  PMPE      H7R            -6.9529778101        5.2274816592      -10.4864451286  MEMB      103             0.0000000000
     12757       103  PMPE      H7S            -8.4447107225        4.1928351229      -10.8113594932  MEMB      103             0.0000000000
     12758       103  PMPE      C28            -8.6691036143        5.3457415342       -9.1273628088  MEMB      103             0.0000000000
     12759       103  PMPE      H8R            -9.7105884830        4.9461831303       -9.1191019518  MEMB      103             0.0000000000
     12760       103  PMPE      H8S            -8.7865292274        6.4119459716       -9.0182403559  MEMB      103             0.0000000000
     12761       103  PMPE      C29            -7.8413293212        4.5821442390       -8.0064163632  MEMB      103             0.0000000000
     12762       103  PMPE      H9R            -7.6281384187        3.5036220434       -8.0290935885  MEMB      103             0.0000000000
     12763       103  PMPE      C217           -8.0791040322        5.0541271930       -6.5872191723  MEMB      103             0.0000000000
     12764       103  PMPE      H17R           -7.9751511687        4.3451736459       -5.7926809815  MEMB      103             0.0000000000
     12765       103  PMPE      H17S           -8.8831678894        5.7612086358       -6.6168405238  MEMB      103             0.0000000000
     12766       103  PMPE      C210           -6.7435168697        5.2794219333       -7.3074752411  MEMB      103             0.0000000000
     12767       103  PMPE      H10R           -5.8709925701        4.6654121554       -7.0694629795  MEMB      103             0.0000000000
     12768       103  PMPE      C211           -6.4356351378        6.5826694041       -7.8769435380  MEMB      103             0.0000000000
     12769       103  PMPE      H11R           -7.4020914957        7.0273189933       -7.9461470902  MEMB      103             0.0000000000
     12770       103  PMPE      H11S           -6.2277721418        6.6094699914       -8.9575441509  MEMB      103             0.0000000000
     12771       103  PMPE      C212           -5.2890029852        7.2210643653       -7.0833055217  MEMB      103             0.0000000000
     12772       103  PMPE      H12R           -4.9914559055        8.1616147717       -7.5453340397  MEMB      103             0.0000000000
     12773       103  PMPE      H12S           -4.4076083239        6.5815688864       -7.2401642701  MEMB      103             0.0000000000
     12774       103  PMPE      C213           -5.4476178692        7.5138970320       -5.5835151925  MEMB      103             0.0000000000
     12775       103  PMPE      H13R           -5.7231047977        6.6413476048       -4.9838223003  MEMB      103             0.0000000000
     12776       103  PMPE      H13S           -6.2426134540        8.1914934775       -5.2236514446  MEMB      103             0.0000000000
     12777       103  PMPE      C214           -4.2425823223        8.2458244121       -5.0731422792  MEMB      103             0.0000000000
     12778       103  PMPE      H14R           -4.1742344385        9.2885950581       -5.5142799881  MEMB      103             0.0000000000
     12779       103  PMPE      H14S           -3.2934145511        7.7180261484       -5.2355715049  MEMB      103             0.0000000000
     12780       103  PMPE      C215           -4.4720670706        8.2242708117       -3.5950723681  MEMB      103             0.0000000000
     12781       103  PMPE      H15R           -4.6136592814        7.2990880870       -3.0473137148  MEMB      103             0.0000000000
     12782       103  PMPE      H15S           -5.3953545290        8.8004564019       -3.5353097115  MEMB      103             0.0000000000
     12783       103  PMPE      C216           -3.3619097624        8.8503786783       -2.9362235835  MEMB      103             0.0000000000
     12784       103  PMPE      H16R           -3.4755350319        9.7412243568       -3.5570082890  MEMB      103             0.0000000000
     12785       103  PMPE      H16S           -3.4873182093        9.0652851423       -1.8658083062  MEMB      103             0.0000000000
     12786       103  PMPE      H16T           -2.3331785574        8.5335706864       -3.1320926405  MEMB      103             0.0000000000
     12787       103  PMPE      C33            -5.3103788966        1.9393107420      -14.5086586921  MEMB      103             0.0000000000
     12788       103  PMPE      H3X            -6.3313979267        2.3260018254      -14.5855891563  MEMB      103             0.0000000000
     12789       103  PMPE      H3Y            -4.7138359913        2.8710841513      -14.4887189728  MEMB      103             0.0000000000
     12790       103  PMPE      C34            -4.9004834053        1.1879495456      -13.2217444642  MEMB      103             0.0000000000
     12791       103  PMPE      H4X            -3.9258893110        0.7229879164      -13.3663603292  MEMB      103             0.0000000000
     12792       103  PMPE      H4Y            -5.5744473313        0.3078032168      -13.1181945214  MEMB      103             0.0000000000
     12793       103  PMPE      C35            -4.7566465101        2.1064425713      -11.9634872683  MEMB      103             0.0000000000
     12794       103  PMPE      H5X            -5.4697988426        2.9253731437      -11.9359216423  MEMB      103             0.0000000000
     12795       103  PMPE      H5Y            -4.0873364803        2.9555129904      -12.0520037015  MEMB      103             0.0000000000
     12796       103  PMPE      C36            -4.5676404047        1.4445831018      -10.5734296829  MEMB      103             0.0000000000
     12797       103  PMPE      H6X            -4.6629484892        2.2946533762       -9.8606479846  MEMB      103             0.0000000000
     12798       103  PMPE      H6Y            -3.5907462828        0.9593109537      -10.4545405150  MEMB      103             0.0000000000
     12799       103  PMPE      C37            -5.5014951934        0.3251427723      -10.1317680540  MEMB      103             0.0000000000
     12800       103  PMPE      H7X            -5.3397634835       -0.4302832509      -10.8904082494  MEMB      103             0.0000000000
     12801       103  PMPE      H7Y            -6.5790853104        0.2693797392      -10.2832614817  MEMB      103             0.0000000000
     12802       103  PMPE      C38            -5.6537873352        0.1733444770       -8.6326485943  MEMB      103             0.0000000000
     12803       103  PMPE      H8X            -4.8462747622       -0.5446799471       -8.3820004912  MEMB      103             0.0000000000
     12804       103  PMPE      H8Y            -6.7109971662       -0.2065478540       -8.4689109982  MEMB      103             0.0000000000
     12805       103  PMPE      C39            -5.7813382978        1.2721515502       -7.6230038542  MEMB      103             0.0000000000
     12806       103  PMPE      H9X            -6.8265097400        1.2299171090       -7.2023319156  MEMB      103             0.0000000000
     12807       103  PMPE      H9Y            -5.8168185504        2.2578189308       -8.0766503594  MEMB      103             0.0000000000
     12808       103  PMPE      C310           -4.7090281520        1.0292050144       -6.5680323552  MEMB      103             0.0000000000
     12809       103  PMPE      H10X           -3.7197812830        0.8822395721       -7.0344210431  MEMB      103             0.0000000000
     12810       103  PMPE      H10Y           -4.7596447910        0.0519562935       -6.0596446764  MEMB      103             0.0000000000
     12811       103  PMPE      C311           -4.7809095824        2.1000507454       -5.4973820052  MEMB      103             0.0000000000
     12812       103  PMPE      H11X           -4.3868804754        3.0212369366       -5.9500661149  MEMB      103             0.0000000000
     12813       103  PMPE      H11Y           -4.0981112058        1.7339322042       -4.6859075801  MEMB      103             0.0000000000
     12814       103  PMPE      C312           -6.2221765831        2.4362338240       -4.9695986513  MEMB      103             0.0000000000
     12815       103  PMPE      H12X           -6.4872175061        1.4519056714       -4.6654875796  MEMB      103             0.0000000000
     12816       103  PMPE      H12Y           -7.0449445290        2.6166968467       -5.6470949236  MEMB      103             0.0000000000
     12817       103  PMPE      C313           -6.3225956054        3.4769977459       -3.8099282976  MEMB      103             0.0000000000
     12818       103  PMPE      H13X           -6.2303989869        4.5298293718       -4.0278933363  MEMB      103             0.0000000000
     12819       103  PMPE      H13Y           -5.2268103404        3.3569550638       -3.6990933709  MEMB      103             0.0000000000
     12820       103  PMPE      C314           -7.4577168046        3.3596411726       -2.6338131709  MEMB      103             0.0000000000
     12821       103  PMPE      H14X           -7.6069903340        2.3301285765       -2.3315096706  MEMB      103             0.0000000000
     12822       103  PMPE      H14Y           -8.4554449333        3.1320012755       -2.9929588370  MEMB      103             0.0000000000
     12823       103  PMPE      C315           -7.2745648988        4.0636001052       -1.1591275843  MEMB      103             0.0000000000
     12824       103  PMPE      H15X           -6.2760453930        4.3573671572       -0.7270392268  MEMB      103             0.0000000000
     12825       103  PMPE      H15Y           -7.6367791645        3.4708122057       -0.3103827249  MEMB      103             0.0000000000
     12826       103  PMPE      C316           -7.9676827100        5.2969698048       -1.1790644420  MEMB      103             0.0000000000
     12827       103  PMPE      H16X           -8.0618447018        5.7121177901       -0.1591142918  MEMB      103             0.0000000000
     12828       103  PMPE      H16Y           -8.8663298449        4.8208605428       -1.5123738630  MEMB      103             0.0000000000
     12829       103  PMPE      H16Z           -7.3695065038        5.8310616396       -1.9483679374  MEMB      103             0.0000000000
     12830       104  PMPE      N               5.3253885609       -0.4047203090      -20.5131120500  MEMB      104             0.0000000000
     12831       104  PMPE      HN1             5.1842847742       -1.3173308315      -20.0253651574  MEMB      104             0.0000000000
     12832       104  PMPE      HN2             5.0531283551        0.3469157301      -19.8446607906  MEMB      104             0.0000000000
     12833       104  PMPE      HN3             4.6558631943       -0.4025179539      -21.3182503359  MEMB      104             0.0000000000
     12834       104  PMPE      C12             6.7763825914       -0.2782575825      -20.9144839271  MEMB      104             0.0000000000
     12835       104  PMPE      H12A            6.8938107988        0.5893218463      -21.5833707239  MEMB      104             0.0000000000
     12836       104  PMPE      H12B            7.0659031201       -1.1637816520      -21.5168667342  MEMB      104             0.0000000000
     12837       104  PMPE      C11             7.7103070822       -0.0915029481      -19.7026850392  MEMB      104             0.0000000000
     12838       104  PMPE      H11A            7.5573903719        0.8816903002      -19.1743561246  MEMB      104             0.0000000000
     12839       104  PMPE      H11B            8.6799741426       -0.0882234303      -20.2211308788  MEMB      104             0.0000000000
     12840       104  PMPE      P               9.0741777744       -1.7227675378      -18.2163743437  MEMB      104             0.0000000000
     12841       104  PMPE      O13             9.7721380168       -0.5741499109      -17.6243493309  MEMB      104             0.0000000000
     12842       104  PMPE      O14             9.7299959829       -2.3703621349      -19.3828248924  MEMB      104             0.0000000000
     12843       104  PMPE      O11             8.6662913383       -2.7511624949      -17.1179433836  MEMB      104             0.0000000000
     12844       104  PMPE      O12             7.6632124194       -1.1650757165      -18.7671369681  MEMB      104             0.0000000000
     12845       104  PMPE      C1              7.4914707991       -2.6033543500      -16.3118780247  MEMB      104             0.0000000000
     12846       104  PMPE      HA              7.0059147550       -3.6037510192      -16.2808207716  MEMB      104             0.0000000000
     12847       104  PMPE      HB              6.7323528032       -1.9205146001      -16.7516411474  MEMB      104             0.0000000000
     12848       104  PMPE      C2              7.8667166209       -2.1748297103      -14.8572273440  MEMB      104             0.0000000000
     12849       104  PMPE      HS              6.9548548503       -2.2395516540      -14.2102329385  MEMB      104             0.0000000000
     12850       104  PMPE      O21             8.4693341121       -0.8557244318      -14.8502034750  MEMB      104             0.0000000000
     12851       104  PMPE      C21             7.6084983761        0.1495618338      -14.9672166038  MEMB      104             0.0000000000
     12852       104  PMPE      O22             6.4058159068        0.0199397926      -14.8780461476  MEMB      104             0.0000000000
     12853       104  PMPE      C22             8.2615368413        1.5129260088      -15.1907943357  MEMB      104             0.0000000000
     12854       104  PMPE      H2R             7.4650283462        2.2231096591      -15.4990370952  MEMB      104             0.0000000000
     12855       104  PMPE      H2S             9.0245265667        1.4609571249      -15.9891565167  MEMB      104             0.0000000000
     12856       104  PMPE      C3              8.8850690991       -3.2321428350      -14.3362780793  MEMB      104             0.0000000000
     12857       104  PMPE      HX              9.7449975693       -3.1872309735      -15.0415810759  MEMB      104             0.0000000000
     12858       104  PMPE      HY              8.3486620187       -4.2022106380      -14.4394604746  MEMB      104             0.0000000000
     12859       104  PMPE      O31             9.3253202787       -3.0380025887      -12.9789201725  MEMB      104             0.0000000000
     12860       104  PMPE      C31            10.1483959400       -3.9758290378      -12.5350160383  MEMB      104             0.0000000000
     12861       104  PMPE      O32            10.5064558521       -4.9703077518      -13.1311305051  MEMB      104             0.0000000000
     12862       104  PMPE      C32            10.5376948497       -3.6310827312      -11.1228931772  MEMB      104             0.0000000000
     12863       104  PMPE      H2X             9.8224142251       -4.0175021494      -10.3884413757  MEMB      104             0.0000000000
     12864       104  PMPE      H2Y            10.6196146783       -2.5189603408      -11.0530681008  MEMB      104             0.0000000000
     12865       104  PMPE      C23             8.8435742280        2.0337278441      -13.8760732161  MEMB      104             0.0000000000
     12866       104  PMPE      H3R             8.1089854381        1.8383387028      -13.0636538009  MEMB      104             0.0000000000
     12867       104  PMPE      H3S             8.9874055240        3.1374952825      -13.9517640934  MEMB      104             0.0000000000
     12868       104  PMPE      C24            10.2031761370        1.3986308280      -13.5810285845  MEMB      104             0.0000000000
     12869       104  PMPE      H4R            10.8717199563        1.6381970721      -14.4432470245  MEMB      104             0.0000000000
     12870       104  PMPE      H4S            10.1276696735        0.2922760905      -13.5187409241  MEMB      104             0.0000000000
     12871       104  PMPE      C25            10.8334869383        1.9397949477      -12.2987733423  MEMB      104             0.0000000000
     12872       104  PMPE      H5R            11.0842734608        2.9916267258      -12.5244391997  MEMB      104             0.0000000000
     12873       104  PMPE      H5S            11.7729384950        1.3829839344      -12.0804253176  MEMB      104             0.0000000000
     12874       104  PMPE      C26             9.9424116482        1.9839774640      -11.0521316680  MEMB      104             0.0000000000
     12875       104  PMPE      H6R             9.1103084276        2.7040699145      -11.1930031976  MEMB      104             0.0000000000
     12876       104  PMPE      H6S            10.5202275567        2.3616033520      -10.2099386532  MEMB      104             0.0000000000
     12877       104  PMPE      C27             9.3952376520        0.6218403971      -10.7276432415  MEMB      104             0.0000000000
     12878       104  PMPE      H7R            10.1792938508       -0.1425761898      -10.5475942082  MEMB      104             0.0000000000
     12879       104  PMPE      H7S             8.7410362710        0.3465960870      -11.5853836862  MEMB      104             0.0000000000
     12880       104  PMPE      C28             8.5073760207        0.5101580243       -9.5541506148  MEMB      104             0.0000000000
     12881       104  PMPE      H8R             7.7759131258        1.3526273181       -9.5524997231  MEMB      104             0.0000000000
     12882       104  PMPE      H8S             9.0826817705        0.3739679941       -8.6172904413  MEMB      104             0.0000000000
     12883       104  PMPE      C29             7.9273032377       -0.8069759448       -9.8244158127  MEMB      104             0.0000000000
     12884       104  PMPE      H9R             8.5249844679       -1.7152478457       -9.5728137876  MEMB      104             0.0000000000
     12885       104  PMPE      C217            6.5959744833       -0.8119411481      -10.5938899483  MEMB      104             0.0000000000
     12886       104  PMPE      H17R            6.2547080750       -1.7867063391      -10.9497719527  MEMB      104             0.0000000000
     12887       104  PMPE      H17S            5.9863972425        0.0741652666      -10.6593066227  MEMB      104             0.0000000000
     12888       104  PMPE      C210            6.7172161562       -0.9019834573       -9.1143733942  MEMB      104             0.0000000000
     12889       104  PMPE      H10R            6.5345718411       -2.0139446863       -9.0293482024  MEMB      104             0.0000000000
     12890       104  PMPE      C211            6.2380077402        0.3529148714       -8.1947461201  MEMB      104             0.0000000000
     12891       104  PMPE      H11R            5.1913076444        0.3881169678       -7.8847857105  MEMB      104             0.0000000000
     12892       104  PMPE      H11S            6.0523328669        1.2659910765       -8.7668462021  MEMB      104             0.0000000000
     12893       104  PMPE      C212            6.9091366756        0.6142241827       -6.8465213948  MEMB      104             0.0000000000
     12894       104  PMPE      H12R            7.8932932397        0.9104627018       -6.7361416386  MEMB      104             0.0000000000
     12895       104  PMPE      H12S            7.4109064958       -0.2778587843       -6.4990815326  MEMB      104             0.0000000000
     12896       104  PMPE      C213            6.1076179580        1.4901510199       -5.8925472239  MEMB      104             0.0000000000
     12897       104  PMPE      H13R            5.0243299919        1.3531399291       -5.9825461200  MEMB      104             0.0000000000
     12898       104  PMPE      H13S            5.8137754884        2.4435955920       -6.3244106890  MEMB      104             0.0000000000
     12899       104  PMPE      C214            6.6961571593        1.6149358574       -4.4269690113  MEMB      104             0.0000000000
     12900       104  PMPE      H14R            7.7141092546        1.3852972786       -4.3703314274  MEMB      104             0.0000000000
     12901       104  PMPE      H14S            6.5340332028        0.7447545086       -3.7617644383  MEMB      104             0.0000000000
     12902       104  PMPE      C215            6.1426844152        2.8910952128       -3.7328448124  MEMB      104             0.0000000000
     12903       104  PMPE      H15R            5.2554126230        2.7881135890       -4.3137814520  MEMB      104             0.0000000000
     12904       104  PMPE      H15S            5.9983145062        3.9119773262       -4.0611913620  MEMB      104             0.0000000000
     12905       104  PMPE      C216            6.1895878990        3.1437982709       -2.2184725714  MEMB      104             0.0000000000
     12906       104  PMPE      H16R            7.0442172513        3.3919681554       -1.8734117453  MEMB      104             0.0000000000
     12907       104  PMPE      H16S            5.6426660882        3.9866624231       -1.7565229050  MEMB      104             0.0000000000
     12908       104  PMPE      H16T            6.0704174718        2.1840167553       -1.7283459619  MEMB      104             0.0000000000
     12909       104  PMPE      C33            11.8116172462       -4.2835477745      -10.6931399844  MEMB      104             0.0000000000
     12910       104  PMPE      H3X            12.2964113686       -4.8911008063      -11.5027317817  MEMB      104             0.0000000000
     12911       104  PMPE      H3Y            11.7195283989       -4.9817527869       -9.8404619956  MEMB      104             0.0000000000
     12912       104  PMPE      C34            12.6634405254       -3.1013463307      -10.2988403414  MEMB      104             0.0000000000
     12913       104  PMPE      H4X            12.8614768744       -2.5624170599      -11.1253035444  MEMB      104             0.0000000000
     12914       104  PMPE      H4Y            13.5931569469       -3.5900939084      -10.4259984311  MEMB      104             0.0000000000
     12915       104  PMPE      C35            12.5761329824       -2.3440615168       -8.9314017104  MEMB      104             0.0000000000
     12916       104  PMPE      H5X            12.5659266010       -2.8935637056       -8.0504344912  MEMB      104             0.0000000000
     12917       104  PMPE      H5Y            11.7530524200       -1.6186153820       -8.9532089015  MEMB      104             0.0000000000
     12918       104  PMPE      C36            13.9078173102       -1.8112537519       -8.3601614601  MEMB      104             0.0000000000
     12919       104  PMPE      H6X            13.4865732679       -0.8718282265       -8.5702930019  MEMB      104             0.0000000000
     12920       104  PMPE      H6Y            14.6711299482       -2.2293815605       -9.0204673927  MEMB      104             0.0000000000
     12921       104  PMPE      C37            14.7756212956       -1.6310407960       -7.0615021946  MEMB      104             0.0000000000
     12922       104  PMPE      H7X            15.8512821366       -1.3342465108       -7.2166785239  MEMB      104             0.0000000000
     12923       104  PMPE      H7Y            14.7716920668       -2.5562350482       -6.5133171765  MEMB      104             0.0000000000
     12924       104  PMPE      C38            14.2831025837       -0.5581352230       -6.2889919950  MEMB      104             0.0000000000
     12925       104  PMPE      H8X            14.7058143573        0.2131604911       -5.6434571924  MEMB      104             0.0000000000
     12926       104  PMPE      H8Y            15.1403026671        0.1710649999       -6.3172699995  MEMB      104             0.0000000000
     12927       104  PMPE      C39            12.7739469060       -0.8747259794       -6.0672252894  MEMB      104             0.0000000000
     12928       104  PMPE      H9X            12.8054238108       -1.1222592319       -4.9981427607  MEMB      104             0.0000000000
     12929       104  PMPE      H9Y            12.5098504722       -1.8984548223       -6.3138629993  MEMB      104             0.0000000000
     12930       104  PMPE      C310           11.5629668118        0.0943620201       -6.4252439384  MEMB      104             0.0000000000
     12931       104  PMPE      H10X           11.3509169941        0.4780506276       -7.4211078279  MEMB      104             0.0000000000
     12932       104  PMPE      H10Y           11.6513563659        1.0680430654       -5.9902951274  MEMB      104             0.0000000000
     12933       104  PMPE      C311           10.2780423444       -0.2925299497       -5.8821609910  MEMB      104             0.0000000000
     12934       104  PMPE      H11X            9.8331394050       -0.9062313365       -6.6890926088  MEMB      104             0.0000000000
     12935       104  PMPE      H11Y            9.5857388444        0.5192741685       -5.5922811959  MEMB      104             0.0000000000
     12936       104  PMPE      C312           10.4409342583       -1.0648192584       -4.6851497660  MEMB      104             0.0000000000
     12937       104  PMPE      H12X           10.9433027802       -0.5879113916       -3.8119131687  MEMB      104             0.0000000000
     12938       104  PMPE      H12Y           10.8512665450       -2.0404768267       -4.9834676302  MEMB      104             0.0000000000
     12939       104  PMPE      C313            9.0683379378       -1.3460046762       -4.4678768685  MEMB      104             0.0000000000
     12940       104  PMPE      H13X            8.6064364480       -1.7182066709       -5.4176072696  MEMB      104             0.0000000000
     12941       104  PMPE      H13Y            8.4669970881       -0.5887019968       -3.9108304167  MEMB      104             0.0000000000
     12942       104  PMPE      C314            9.1156551263       -2.4695601484       -3.6256432645  MEMB      104             0.0000000000
     12943       104  PMPE      H14X            9.3475652622       -3.3334573367       -4.2819381964  MEMB      104             0.0000000000
     12944       104  PMPE      H14Y            8.1752185044       -2.7688354238       -3.2081957090  MEMB      104             0.0000000000
     12945       104  PMPE      C315            9.8310062481       -1.9133602484       -2.4677522136  MEMB      104             0.0000000000
     12946       104  PMPE      H15X            9.2289423522       -1.2543976783       -1.7399933736  MEMB      104             0.0000000000
     12947       104  PMPE      H15Y           10.9336151501       -1.9612653351       -2.4634027100  MEMB      104             0.0000000000
     12948       104  PMPE      C316            9.9165918880       -2.8391848361       -1.6670872657  MEMB      104             0.0000000000
     12949       104  PMPE      H16X           10.2866514188       -2.5727403881       -0.6800670182  MEMB      104             0.0000000000
     12950       104  PMPE      H16Y           10.3031189552       -3.8749004185       -1.9296524834  MEMB      104             0.0000000000
     12951       104  PMPE      H16Z            8.7872561632       -2.9229664130       -1.5605700903  MEMB      104             0.0000000000
     12952       105  QMPE      N              -7.5147670878       -4.5449616334      -21.0792410518  MEMB      105             0.0000000000
     12953       105  QMPE      HN1            -7.3863929843       -5.5665021117      -20.9120464664  MEMB      105             0.0000000000
     12954       105  QMPE      HN2            -6.9237043487       -4.2757700561      -21.8962134840  MEMB      105             0.0000000000
     12955       105  QMPE      HN3            -7.1802478936       -4.0250787711      -20.2155572195  MEMB      105             0.0000000000
     12956       105  QMPE      C12            -8.9534139962       -4.1463633154      -21.3103349271  MEMB      105             0.0000000000
     12957       105  QMPE      H12A           -9.3291219282       -4.7200488769      -22.1792505264  MEMB      105             0.0000000000
     12958       105  QMPE      H12B           -8.9457990065       -3.0723465142      -21.5427769615  MEMB      105             0.0000000000
     12959       105  QMPE      C11            -9.8934177006       -4.4483461429      -20.1221538390  MEMB      105             0.0000000000
     12960       105  QMPE      H11A           -9.6559619858       -5.4678848935      -19.7637598860  MEMB      105             0.0000000000
     12961       105  QMPE      H11B          -10.9456680603       -4.4216000735      -20.4784781803  MEMB      105             0.0000000000
     12962       105  QMPE      P              -8.8102112974       -3.5263112962      -17.9053563198  MEMB      105             0.0000000000
     12963       105  QMPE      O13            -7.5092479957       -3.3747328121      -18.6010861664  MEMB      105             0.0000000000
     12964       105  QMPE      O14            -9.0072690664       -4.7526367825      -17.1111479330  MEMB      105             0.0000000000
     12965       105  QMPE      O11            -9.2648595956       -2.2982061287      -17.0571323952  MEMB      105             0.0000000000
     12966       105  QMPE      O12            -9.8595539424       -3.5050804692      -19.0764813674  MEMB      105             0.0000000000
     12967       105  QMPE      C1            -10.5499101693       -1.6890934273      -17.0931315133  MEMB      105             0.0000000000
     12968       105  QMPE      HA            -11.3394046095       -2.4641558127      -17.0905688447  MEMB      105             0.0000000000
     12969       105  QMPE      HB            -10.6565040370       -1.0932331010      -18.0184016265  MEMB      105             0.0000000000
     12970       105  QMPE      C2            -10.8076569005       -0.7744366699      -15.8549157499  MEMB      105             0.0000000000
     12971       105  QMPE      HS            -11.6447069339       -0.0899252629      -16.1270871804  MEMB      105             0.0000000000
     12972       105  QMPE      O21            -9.6462764566       -0.0351908958      -15.4995032981  MEMB      105             0.0000000000
     12973       105  QMPE      C21            -9.8340764606        0.7413948619      -14.4783782622  MEMB      105             0.0000000000
     12974       105  QMPE      O22           -10.9115188109        1.1085357988      -14.0222330862  MEMB      105             0.0000000000
     12975       105  QMPE      C22            -8.5334520248        1.2964444806      -14.0493101859  MEMB      105             0.0000000000
     12976       105  QMPE      H2R            -8.2092864814        2.1201310648      -14.7277756988  MEMB      105             0.0000000000
     12977       105  QMPE      H2S            -7.7366846026        0.5525176422      -14.0810745611  MEMB      105             0.0000000000
     12978       105  QMPE      C3            -11.1478534144       -1.6112067133      -14.6259941999  MEMB      105             0.0000000000
     12979       105  QMPE      HX            -12.0715317495       -2.1764859636      -14.8243875713  MEMB      105             0.0000000000
     12980       105  QMPE      HY            -11.3280299944       -1.0147799423      -13.7081750175  MEMB      105             0.0000000000
     12981       105  QMPE      O31           -10.0143861009       -2.4506652028      -14.4222690623  MEMB      105             0.0000000000
     12982       105  QMPE      C31           -10.1572684819       -3.2766367471      -13.4579164918  MEMB      105             0.0000000000
     12983       105  QMPE      O32           -11.0637157971       -3.2856477544      -12.6375985738  MEMB      105             0.0000000000
     12984       105  QMPE      C32            -8.9895164568       -4.2236627160      -13.4685698056  MEMB      105             0.0000000000
     12985       105  QMPE      H2X            -9.4372090338       -5.2058333885      -13.4789414355  MEMB      105             0.0000000000
     12986       105  QMPE      H2Y            -8.3547018239       -4.0944579627      -14.3686645925  MEMB      105             0.0000000000
     12987       105  QMPE      C23            -8.7309897528        1.6540371648      -12.6047844538  MEMB      105             0.0000000000
     12988       105  QMPE      H3R            -9.4819539433        1.1706627499      -11.9933254794  MEMB      105             0.0000000000
     12989       105  QMPE      H3S            -8.8853601653        2.6443578380      -12.3226924344  MEMB      105             0.0000000000
     12990       105  QMPE      C24            -7.4335090174        1.7145580742      -12.0111735481  MEMB      105             0.0000000000
     12991       105  QMPE      H4R            -6.9711411816        2.3781722976      -12.7762793389  MEMB      105             0.0000000000
     12992       105  QMPE      H4S            -7.0361317001        0.7005158052      -12.0327972703  MEMB      105             0.0000000000
     12993       105  QMPE      C25            -7.3764306427        2.3336866067      -10.6429005516  MEMB      105             0.0000000000
     12994       105  QMPE      H5R            -6.8383277714        3.2810927050      -10.6297054864  MEMB      105             0.0000000000
     12995       105  QMPE      H5S            -6.5765970339        2.2510330318       -9.9513942646  MEMB      105             0.0000000000
     12996       105  QMPE      C26            -8.3411929668        1.6576449129       -9.7344896353  MEMB      105             0.0000000000
     12997       105  QMPE      H6R            -7.9305794098        1.5974076620       -8.7114788017  MEMB      105             0.0000000000
     12998       105  QMPE      H6S            -8.4925096027        0.6227032499      -10.0649868630  MEMB      105             0.0000000000
     12999       105  QMPE      C27            -9.5754739645        2.4354530185       -9.6733930627  MEMB      105             0.0000000000
     13000       105  QMPE      H7R           -10.0436977048        2.7727092474      -10.6091549459  MEMB      105             0.0000000000
     13001       105  QMPE      H7S            -9.0345806431        3.2264756305       -9.3120196536  MEMB      105             0.0000000000
     13002       105  QMPE      C28           -10.3023735603        2.2566286229       -8.4256694746  MEMB      105             0.0000000000
     13003       105  QMPE      H8R           -11.0670161407        3.0395149267       -8.2863206834  MEMB      105             0.0000000000
     13004       105  QMPE      H8S            -9.6382979123        2.2385274597       -7.5386855413  MEMB      105             0.0000000000
     13005       105  QMPE      C29           -10.7736573616        0.9575660159       -8.7878893543  MEMB      105             0.0000000000
     13006       105  QMPE      H9R           -10.3216188246        0.2715590573       -9.5426885069  MEMB      105             0.0000000000
     13007       105  QMPE      C217          -12.1423611883        1.1441467732       -9.2918908016  MEMB      105             0.0000000000
     13008       105  QMPE      H17R          -12.5827014751        2.0469129757       -8.9573566592  MEMB      105             0.0000000000
     13009       105  QMPE      H17S          -12.5575469089        0.4225011610       -9.9836422516  MEMB      105             0.0000000000
     13010       105  QMPE      C210          -11.8703619551        0.4686479164       -8.0608899568  MEMB      105             0.0000000000
     13011       105  QMPE      H10R          -11.6844900479       -0.5586889942       -8.3551713069  MEMB      105             0.0000000000
     13012       105  QMPE      C211          -12.5754002168        1.1052404674       -6.8436867673  MEMB      105             0.0000000000
     13013       105  QMPE      H11R          -12.8092258495        2.1814659007       -6.9201920785  MEMB      105             0.0000000000
     13014       105  QMPE      H11S          -13.6000690518        0.7172464910       -6.7642373964  MEMB      105             0.0000000000
     13015       105  QMPE      C212          -11.6408364410        0.8046525770       -5.6788893445  MEMB      105             0.0000000000
     13016       105  QMPE      H12R          -10.6606603374        1.2264163131       -5.9893484911  MEMB      105             0.0000000000
     13017       105  QMPE      H12S          -11.6283123939       -0.2352388369       -5.3582302541  MEMB      105             0.0000000000
     13018       105  QMPE      C213          -11.9997246550        1.4082931006       -4.3747602238  MEMB      105             0.0000000000
     13019       105  QMPE      H13R          -13.0690555476        1.1593837259       -4.2079814218  MEMB      105             0.0000000000
     13020       105  QMPE      H13S          -11.7969266385        2.3642575156       -4.8370024700  MEMB      105             0.0000000000
     13021       105  QMPE      C214          -11.0480700291        1.3711994762       -3.1824576356  MEMB      105             0.0000000000
     13022       105  QMPE      H14R          -10.0788621750        1.6887855933       -3.5995207619  MEMB      105             0.0000000000
     13023       105  QMPE      H14S          -11.1887810290        0.3207323068       -2.8576878794  MEMB      105             0.0000000000
     13024       105  QMPE      C215          -11.1868057863        2.2806667130       -1.9358837302  MEMB      105             0.0000000000
     13025       105  QMPE      H15R          -10.8845383226        1.9903047325       -0.9319527368  MEMB      105             0.0000000000
     13026       105  QMPE      H15S          -12.1388957572        1.9288157631       -1.6097274218  MEMB      105             0.0000000000
     13027       105  QMPE      C216          -10.9021185046        3.7988617988       -2.0236950113  MEMB      105             0.0000000000
     13028       105  QMPE      H16R          -11.5278171436        4.4238114690       -2.6198733969  MEMB      105             0.0000000000
     13029       105  QMPE      H16S           -9.9931522653        3.9888920332       -2.5687053184  MEMB      105             0.0000000000
     13030       105  QMPE      H16T          -11.1811269230        4.4068141108       -1.1404557846  MEMB      105             0.0000000000
     13031       105  QMPE      C33            -8.2142859973       -4.1465712652      -12.1727355482  MEMB      105             0.0000000000
     13032       105  QMPE      H3X            -7.3098282208       -4.7940590991      -12.2593773340  MEMB      105             0.0000000000
     13033       105  QMPE      H3Y            -8.8411899823       -4.5381337106      -11.3420620711  MEMB      105             0.0000000000
     13034       105  QMPE      C34            -7.8112427832       -2.7187989150      -11.8981052513  MEMB      105             0.0000000000
     13035       105  QMPE      H4X            -8.6816360531       -2.0269870284      -11.7858049934  MEMB      105             0.0000000000
     13036       105  QMPE      H4Y            -7.2167510997       -2.3667903948      -12.7806376065  MEMB      105             0.0000000000
     13037       105  QMPE      C35            -6.9544879902       -2.6771575457      -10.6550171689  MEMB      105             0.0000000000
     13038       105  QMPE      H5X            -6.5911879210       -1.6775206599      -10.6871302174  MEMB      105             0.0000000000
     13039       105  QMPE      H5Y            -6.0582928738       -3.3142911871      -10.7541392742  MEMB      105             0.0000000000
     13040       105  QMPE      C36            -7.6637783283       -2.7994814996       -9.2923268672  MEMB      105             0.0000000000
     13041       105  QMPE      H6X            -7.9292323418       -3.8477262328       -9.1496945391  MEMB      105             0.0000000000
     13042       105  QMPE      H6Y            -8.5469054586       -2.0972583762       -9.3102807748  MEMB      105             0.0000000000
     13043       105  QMPE      C37            -6.7585766908       -2.4875733381       -8.0879989581  MEMB      105             0.0000000000
     13044       105  QMPE      H7X            -5.8298300281       -2.9823623893       -7.7927831215  MEMB      105             0.0000000000
     13045       105  QMPE      H7Y            -6.1366839373       -1.9223972996       -8.7435081973  MEMB      105             0.0000000000
     13046       105  QMPE      C38            -7.5236082005       -1.9523296342       -6.8431844987  MEMB      105             0.0000000000
     13047       105  QMPE      H8X            -8.4513796808       -1.4045357728       -7.1275697100  MEMB      105             0.0000000000
     13048       105  QMPE      H8Y            -7.7723223709       -2.8798389968       -6.2969336601  MEMB      105             0.0000000000
     13049       105  QMPE      C39            -6.7691861097       -1.1654580303       -5.7756571616  MEMB      105             0.0000000000
     13050       105  QMPE      H9X            -6.7327501610       -0.1281086074       -6.0492064559  MEMB      105             0.0000000000
     13051       105  QMPE      H9Y            -5.7377114146       -1.5396096050       -5.6143019265  MEMB      105             0.0000000000
     13052       105  QMPE      C310           -7.3985868311       -0.7948428056       -4.4349695548  MEMB      105             0.0000000000
     13053       105  QMPE      H10X           -8.2799489265       -0.1249385025       -4.5575600910  MEMB      105             0.0000000000
     13054       105  QMPE      H10Y           -6.5334707781       -0.2317638990       -4.0335444071  MEMB      105             0.0000000000
     13055       105  QMPE      C311           -7.3636907197       -1.9259492652       -3.4486054755  MEMB      105             0.0000000000
     13056       105  QMPE      H11X           -6.2576993473       -2.0889061361       -3.2945591725  MEMB      105             0.0000000000
     13057       105  QMPE      H11Y           -7.8117165496       -2.7614479056       -3.9813417158  MEMB      105             0.0000000000
     13058       105  QMPE      C312           -8.0109825025       -1.8649876598       -2.0659656680  MEMB      105             0.0000000000
     13059       105  QMPE      H12X           -7.9696437686       -2.8175504045       -1.5442570628  MEMB      105             0.0000000000
     13060       105  QMPE      H12Y           -9.0316572303       -1.3566247754       -2.0019404277  MEMB      105             0.0000000000
     13061       105  QMPE      C313           -6.8776589980       -1.5657842214       -1.1197778393  MEMB      105             0.0000000000
     13062       105  QMPE      H13X           -5.8263589572       -1.5303399822       -1.4246569025  MEMB      105             0.0000000000
     13063       105  QMPE      H13Y           -7.4967082707       -0.6543990555       -1.4129391324  MEMB      105             0.0000000000
     13064       105  QMPE      C314           -6.7100223996       -1.3091412761        0.3544237054  MEMB      105             0.0000000000
     13065       105  QMPE      H14X           -7.7038901265       -1.7190125490        0.4831258527  MEMB      105             0.0000000000
     13066       105  QMPE      H14Y           -6.5305315571       -0.3042109278        0.8761407756  MEMB      105             0.0000000000
     13067       105  QMPE      C315           -5.6224923937       -1.7703080582        1.1548902816  MEMB      105             0.0000000000
     13068       105  QMPE      H15X           -5.8417660830       -2.7872552695        0.8159405341  MEMB      105             0.0000000000
     13069       105  QMPE      H15Y           -4.7132990590       -1.2661285119        0.7816517662  MEMB      105             0.0000000000
     13070       105  QMPE      H15Z           -5.8925534451       -1.4547015086        2.2165881263  MEMB      105             0.0000000000
     13071       106  QMPE      N               7.2138414341       -9.6473212392      -19.5411019383  MEMB      106             0.0000000000
     13072       106  QMPE      HN1             7.0167581913       -8.6282050937      -19.3623764342  MEMB      106             0.0000000000
     13073       106  QMPE      HN2             7.3755102500      -10.1025918131      -18.6244454079  MEMB      106             0.0000000000
     13074       106  QMPE      HN3             8.0334440802       -9.8439504366      -20.1607231941  MEMB      106             0.0000000000
     13075       106  QMPE      C12             6.0167674168      -10.2087716769      -20.2579796011  MEMB      106             0.0000000000
     13076       106  QMPE      H12A            6.1929754712      -11.2952258568      -20.4154211809  MEMB      106             0.0000000000
     13077       106  QMPE      H12B            5.9693919750       -9.7148827856      -21.2499629530  MEMB      106             0.0000000000
     13078       106  QMPE      C11             4.7511303546      -10.0204834741      -19.4071878788  MEMB      106             0.0000000000
     13079       106  QMPE      H11A            5.0097555285      -10.2417666625      -18.3433620399  MEMB      106             0.0000000000
     13080       106  QMPE      H11B            4.0160251659      -10.7982157345      -19.7146973996  MEMB      106             0.0000000000
     13081       106  QMPE      P               4.4671845892       -7.5037143252      -18.6452512880  MEMB      106             0.0000000000
     13082       106  QMPE      O13             3.5495639935       -6.3718199291      -18.8851340878  MEMB      106             0.0000000000
     13083       106  QMPE      O14             5.9293589437       -7.2920716017      -18.7300346099  MEMB      106             0.0000000000
     13084       106  QMPE      O11             4.2061221865       -8.1833728745      -17.2788954044  MEMB      106             0.0000000000
     13085       106  QMPE      O12             4.1505514366       -8.7320237517      -19.5877230550  MEMB      106             0.0000000000
     13086       106  QMPE      C1              2.8872719025       -8.3879080478      -16.8426254821  MEMB      106             0.0000000000
     13087       106  QMPE      HA              2.3760456520       -9.2014816457      -17.4169339148  MEMB      106             0.0000000000
     13088       106  QMPE      HB              2.2377364903       -7.4797785419      -16.9347178441  MEMB      106             0.0000000000
     13089       106  QMPE      C2              2.9581462408       -8.7557771401      -15.3661290428  MEMB      106             0.0000000000
     13090       106  QMPE      HS              2.0645618864       -8.7155423665      -14.8623899390  MEMB      106             0.0000000000
     13091       106  QMPE      O21             3.8414260880       -8.0301520744      -14.5400565516  MEMB      106             0.0000000000
     13092       106  QMPE      C21             3.2244363482       -6.8978746902      -14.1717496341  MEMB      106             0.0000000000
     13093       106  QMPE      O22             2.1219259601       -6.5373594459      -14.5490048182  MEMB      106             0.0000000000
     13094       106  QMPE      C22             4.0735928518       -6.3129869655      -13.0635879307  MEMB      106             0.0000000000
     13095       106  QMPE      H2R             4.4308059487       -5.3289033218      -13.4081443604  MEMB      106             0.0000000000
     13096       106  QMPE      H2S             4.9404253218       -6.9829237845      -12.9210615969  MEMB      106             0.0000000000
     13097       106  QMPE      C3              3.2522892629      -10.1878067284      -15.2098314181  MEMB      106             0.0000000000
     13098       106  QMPE      HX              4.3404801484      -10.4116245741      -15.3251237444  MEMB      106             0.0000000000
     13099       106  QMPE      HY              2.7084889016      -10.6660998746      -16.0655076564  MEMB      106             0.0000000000
     13100       106  QMPE      O31             2.6972542129      -10.3981672183      -13.8854043754  MEMB      106             0.0000000000
     13101       106  QMPE      C31             1.4351069910      -10.6702830760      -13.4199861104  MEMB      106             0.0000000000
     13102       106  QMPE      O32             0.4904663981      -11.1227807629      -13.9792077299  MEMB      106             0.0000000000
     13103       106  QMPE      C32             1.3111298157      -10.6692940180      -11.9777392614  MEMB      106             0.0000000000
     13104       106  QMPE      H2X             0.7623275468      -11.5914895826      -11.6509933320  MEMB      106             0.0000000000
     13105       106  QMPE      H2Y             2.3580122005      -10.8267974563      -11.9043203999  MEMB      106             0.0000000000
     13106       106  QMPE      C23             3.4145725541       -6.2974417320      -11.6776704726  MEMB      106             0.0000000000
     13107       106  QMPE      H3R             2.6954080932       -7.1006211036      -11.4828931456  MEMB      106             0.0000000000
     13108       106  QMPE      H3S             2.7944857838       -5.4627224394      -11.5390346006  MEMB      106             0.0000000000
     13109       106  QMPE      C24             4.2404314843       -5.6553018047      -10.5926917828  MEMB      106             0.0000000000
     13110       106  QMPE      H4R             4.7134999911       -4.7364030040      -11.0354937669  MEMB      106             0.0000000000
     13111       106  QMPE      H4S             5.0172531314       -6.3609476840      -10.2861316940  MEMB      106             0.0000000000
     13112       106  QMPE      C25             3.4161897984       -5.2546370810       -9.3631865541  MEMB      106             0.0000000000
     13113       106  QMPE      H5R             2.5213426520       -5.8777570334       -9.1386216459  MEMB      106             0.0000000000
     13114       106  QMPE      H5S             3.1551978376       -4.1669184161       -9.4222748394  MEMB      106             0.0000000000
     13115       106  QMPE      C26             4.3184860576       -5.2571606255       -8.1889913029  MEMB      106             0.0000000000
     13116       106  QMPE      H6R             5.0919766607       -4.5814074463       -8.6372899345  MEMB      106             0.0000000000
     13117       106  QMPE      H6S             4.8632267832       -6.1846922242       -8.0156669011  MEMB      106             0.0000000000
     13118       106  QMPE      C27             3.5984378092       -4.8158366646       -6.8878720503  MEMB      106             0.0000000000
     13119       106  QMPE      H7R             3.0184117260       -5.6625215569       -6.5051042783  MEMB      106             0.0000000000
     13120       106  QMPE      H7S             2.7930234031       -4.0746309900       -7.1563559541  MEMB      106             0.0000000000
     13121       106  QMPE      C28             4.6108704986       -4.2770198503       -5.7992220845  MEMB      106             0.0000000000
     13122       106  QMPE      H8R             5.4282365946       -4.9101685156       -5.5008179604  MEMB      106             0.0000000000
     13123       106  QMPE      H8S             4.0303427629       -3.6994637259       -5.0191883371  MEMB      106             0.0000000000
     13124       106  QMPE      C29             5.4905598591       -3.3436394881       -6.5571629059  MEMB      106             0.0000000000
     13125       106  QMPE      H9R             5.0235120689       -3.2570624255       -7.4220516905  MEMB      106             0.0000000000
     13126       106  QMPE      C217            6.8471657375       -2.7379206527       -6.8307930194  MEMB      106             0.0000000000
     13127       106  QMPE      H17R            7.4219826542       -3.5401894174       -7.1672665599  MEMB      106             0.0000000000
     13128       106  QMPE      H17S            6.4566925244       -1.8707049750       -7.2979844038  MEMB      106             0.0000000000
     13129       106  QMPE      C210            6.1696325321       -2.3249296348       -5.6974036646  MEMB      106             0.0000000000
     13130       106  QMPE      H10R            6.1457635314       -1.2169758456       -5.6626392305  MEMB      106             0.0000000000
     13131       106  QMPE      C211            6.4222708484       -2.7323949487       -4.4288142761  MEMB      106             0.0000000000
     13132       106  QMPE      H11R            7.0039147958       -3.6464207455       -4.5247129573  MEMB      106             0.0000000000
     13133       106  QMPE      H11S            7.0143178377       -1.8276463117       -4.2571194386  MEMB      106             0.0000000000
     13134       106  QMPE      C212            5.6744840549       -2.2044317125       -3.2296421252  MEMB      106             0.0000000000
     13135       106  QMPE      H12R            4.6713879030       -2.6044311329       -3.2862110710  MEMB      106             0.0000000000
     13136       106  QMPE      H12S            5.7571459653       -1.1062589099       -3.1867489465  MEMB      106             0.0000000000
     13137       106  QMPE      C213            6.2118198354       -2.5060460630       -1.8913732027  MEMB      106             0.0000000000
     13138       106  QMPE      H13R            7.1815249425       -1.9937659787       -1.7509277064  MEMB      106             0.0000000000
     13139       106  QMPE      H13S            6.2258580167       -3.5948185693       -1.9214957487  MEMB      106             0.0000000000
     13140       106  QMPE      C214            5.3806565389       -2.0165796861       -0.7492057947  MEMB      106             0.0000000000
     13141       106  QMPE      H14R            5.2133903324       -0.9221775128       -0.8497762388  MEMB      106             0.0000000000
     13142       106  QMPE      H14S            6.0293498501       -2.2319159485        0.1330944423  MEMB      106             0.0000000000
     13143       106  QMPE      C215            4.0657637767       -2.7505361967       -0.6058531072  MEMB      106             0.0000000000
     13144       106  QMPE      H15R            3.9774690700       -3.5446588105       -1.3840027253  MEMB      106             0.0000000000
     13145       106  QMPE      H15S            3.2639722524       -2.0133593516       -0.8266977745  MEMB      106             0.0000000000
     13146       106  QMPE      C216            3.9480742855       -3.2992079162        0.8181269224  MEMB      106             0.0000000000
     13147       106  QMPE      H16R            2.9411170708       -3.6996579084        1.0385327726  MEMB      106             0.0000000000
     13148       106  QMPE      H16S            4.1354984100       -2.4778618347        1.5432749450  MEMB      106             0.0000000000
     13149       106  QMPE      H16T            4.7085520450       -4.0906310215        1.0088546177  MEMB      106             0.0000000000
     13150       106  QMPE      C33             1.6386839691       -9.4569822486      -11.1559390205  MEMB      106             0.0000000000
     13151       106  QMPE      H3X             0.7405844339       -8.9010995604      -11.3721796456  MEMB      106             0.0000000000
     13152       106  QMPE      H3Y             2.5973446564       -9.0174707122      -11.5044613222  MEMB      106             0.0000000000
     13153       106  QMPE      C34             1.6675843241       -9.5943403995       -9.6583473004  MEMB      106             0.0000000000
     13154       106  QMPE      H4X             0.9785748018      -10.4739896497       -9.5588256502  MEMB      106             0.0000000000
     13155       106  QMPE      H4Y             1.3175915813       -8.6662343754       -9.1929825958  MEMB      106             0.0000000000
     13156       106  QMPE      C35             3.0052208983       -9.7548718401       -8.9389497044  MEMB      106             0.0000000000
     13157       106  QMPE      H5X             3.8779633611       -9.1724506239       -9.2092221084  MEMB      106             0.0000000000
     13158       106  QMPE      H5Y             3.0372585686      -10.6127434825       -9.5529740388  MEMB      106             0.0000000000
     13159       106  QMPE      C36             3.0720332874      -10.1768408693       -7.4652998637  MEMB      106             0.0000000000
     13160       106  QMPE      H6X             3.8756755362      -10.8310482137       -7.0501486544  MEMB      106             0.0000000000
     13161       106  QMPE      H6Y             2.3608080956      -10.9714975390       -7.4452317077  MEMB      106             0.0000000000
     13162       106  QMPE      C37             2.6089679352       -9.1628298830       -6.5439979317  MEMB      106             0.0000000000
     13163       106  QMPE      H7X             1.6705673187       -8.6572578224       -6.8977053807  MEMB      106             0.0000000000
     13164       106  QMPE      H7Y             2.4416536270       -9.6401929266       -5.5811944464  MEMB      106             0.0000000000
     13165       106  QMPE      C38             3.5236547178       -8.1359318256       -6.3047144394  MEMB      106             0.0000000000
     13166       106  QMPE      H8X             3.2678553585       -7.5799186495       -7.2383400278  MEMB      106             0.0000000000
     13167       106  QMPE      H8Y             3.0812591517       -7.7489868600       -5.3506484319  MEMB      106             0.0000000000
     13168       106  QMPE      C39             4.9373679641       -8.6616447420       -6.2883316473  MEMB      106             0.0000000000
     13169       106  QMPE      H9X             5.4626370859       -7.7026364517       -6.3688301784  MEMB      106             0.0000000000
     13170       106  QMPE      H9Y             5.2135810430       -9.2514588532       -7.1963363913  MEMB      106             0.0000000000
     13171       106  QMPE      C310            5.3404952450       -9.4652843894       -5.0458387306  MEMB      106             0.0000000000
     13172       106  QMPE      H10X            6.4056000750       -9.7548679887       -5.1818445505  MEMB      106             0.0000000000
     13173       106  QMPE      H10Y            4.7535153890      -10.4168560933       -4.9760664649  MEMB      106             0.0000000000
     13174       106  QMPE      C311            5.1366937114       -8.7328618730       -3.7055628992  MEMB      106             0.0000000000
     13175       106  QMPE      H11X            5.6629965494       -9.3449403428       -2.9430410823  MEMB      106             0.0000000000
     13176       106  QMPE      H11Y            4.0433916320       -8.7512496703       -3.4880675760  MEMB      106             0.0000000000
     13177       106  QMPE      C312            5.5702577245       -7.2525412831       -3.6105749744  MEMB      106             0.0000000000
     13178       106  QMPE      H12X            5.0783304712       -6.7007079285       -4.4443991719  MEMB      106             0.0000000000
     13179       106  QMPE      H12Y            6.6605081583       -7.1339872804       -3.7658308459  MEMB      106             0.0000000000
     13180       106  QMPE      C313            5.1250620837       -6.5524530678       -2.2964417567  MEMB      106             0.0000000000
     13181       106  QMPE      H13X            5.2513873065       -5.4532693570       -2.4242598581  MEMB      106             0.0000000000
     13182       106  QMPE      H13Y            4.0407260661       -6.7391435480       -2.1525988555  MEMB      106             0.0000000000
     13183       106  QMPE      C314            5.7447644672       -7.0174641620       -0.9597268170  MEMB      106             0.0000000000
     13184       106  QMPE      H14X            5.5519677906       -8.0722168219       -0.7662716053  MEMB      106             0.0000000000
     13185       106  QMPE      H14Y            5.3908819972       -6.3559322444       -0.1292137254  MEMB      106             0.0000000000
     13186       106  QMPE      C315            7.1983883546       -7.0798792356       -0.8947018429  MEMB      106             0.0000000000
     13187       106  QMPE      H15X            7.6588415481       -7.3573702343       -1.8554213091  MEMB      106             0.0000000000
     13188       106  QMPE      H15Y            7.2759496111       -6.0656245739       -0.6106901508  MEMB      106             0.0000000000
     13189       106  QMPE      H15Z            7.8735385419       -7.1172561238       -0.0520689478  MEMB      106             0.0000000000
     13190       107  PMPE      N              -3.9986311411      -12.6510796349      -19.5137230772  MEMB      107             0.0000000000
     13191       107  PMPE      HN1            -3.2907073134      -12.6738150658      -18.7463533898  MEMB      107             0.0000000000
     13192       107  PMPE      HN2            -4.8146535530      -12.1419162714      -19.1051730829  MEMB      107             0.0000000000
     13193       107  PMPE      HN3            -4.2842672336      -13.6007220096      -19.8198415618  MEMB      107             0.0000000000
     13194       107  PMPE      C12            -3.4171742486      -11.8279953941      -20.6443040263  MEMB      107             0.0000000000
     13195       107  PMPE      H12A           -3.9830012979      -12.0379692732      -21.5747589885  MEMB      107             0.0000000000
     13196       107  PMPE      H12B           -2.3697554347      -12.1511262782      -20.8046409200  MEMB      107             0.0000000000
     13197       107  PMPE      C11            -3.4479034762      -10.3430376937      -20.2614384518  MEMB      107             0.0000000000
     13198       107  PMPE      H11A           -4.5123733428      -10.0063026434      -20.2713140783  MEMB      107             0.0000000000
     13199       107  PMPE      H11B           -2.9047474455       -9.7333771873      -21.0211334503  MEMB      107             0.0000000000
     13200       107  PMPE      P              -2.9633666112       -8.6761019031      -18.3467889676  MEMB      107             0.0000000000
     13201       107  PMPE      O13            -4.0481377457       -8.7295826079      -17.3511317345  MEMB      107             0.0000000000
     13202       107  PMPE      O14            -3.0272214284       -7.6540038676      -19.4188566361  MEMB      107             0.0000000000
     13203       107  PMPE      O11            -1.5952837054       -8.4788529777      -17.6193629277  MEMB      107             0.0000000000
     13204       107  PMPE      O12            -2.8547682284      -10.1531536215      -18.9758534607  MEMB      107             0.0000000000
     13205       107  PMPE      C1             -0.5875340001       -9.4507625117      -17.4956002599  MEMB      107             0.0000000000
     13206       107  PMPE      HA              0.3826400624       -9.0047827153      -17.8110284128  MEMB      107             0.0000000000
     13207       107  PMPE      HB             -0.7191238528      -10.3604896984      -18.1129114444  MEMB      107             0.0000000000
     13208       107  PMPE      C2             -0.4953088659       -9.8322291838      -16.0311112453  MEMB      107             0.0000000000
     13209       107  PMPE      HS              0.2826909940      -10.6493822605      -16.0182147453  MEMB      107             0.0000000000
     13210       107  PMPE      O21            -1.6663809967      -10.2357137756      -15.3628143001  MEMB      107             0.0000000000
     13211       107  PMPE      C21            -2.2678310291      -11.2469498223      -15.8245067139  MEMB      107             0.0000000000
     13212       107  PMPE      O22            -1.8470520098      -12.0790526247      -16.6282698436  MEMB      107             0.0000000000
     13213       107  PMPE      C22            -3.6724242894      -11.1827142871      -15.2593564876  MEMB      107             0.0000000000
     13214       107  PMPE      H2R            -4.3375981164      -11.0332672449      -16.1329531502  MEMB      107             0.0000000000
     13215       107  PMPE      H2S            -3.7935401968      -10.2765899359      -14.6262175043  MEMB      107             0.0000000000
     13216       107  PMPE      C3             -0.0345106474       -8.6448775190      -15.2013286071  MEMB      107             0.0000000000
     13217       107  PMPE      HX              0.6520384929       -8.1795625433      -15.9055911890  MEMB      107             0.0000000000
     13218       107  PMPE      HY              0.4519713258       -8.9475124834      -14.2988310412  MEMB      107             0.0000000000
     13219       107  PMPE      O31            -0.8496791031       -7.6137526617      -14.7797539657  MEMB      107             0.0000000000
     13220       107  PMPE      C31            -1.0774011318       -7.4942337051      -13.4934808364  MEMB      107             0.0000000000
     13221       107  PMPE      O32            -0.8926528299       -8.2927103081      -12.5965690031  MEMB      107             0.0000000000
     13222       107  PMPE      C32            -1.5370738027       -6.0932478807      -13.4185092863  MEMB      107             0.0000000000
     13223       107  PMPE      H2X            -2.1858923430       -5.9477666077      -14.3053900229  MEMB      107             0.0000000000
     13224       107  PMPE      H2Y            -0.6148985264       -5.5173126922      -13.5915743485  MEMB      107             0.0000000000
     13225       107  PMPE      C23            -3.9982272363      -12.4643592617      -14.4827657187  MEMB      107             0.0000000000
     13226       107  PMPE      H3R            -3.8483470928      -13.3312416977      -15.1645926075  MEMB      107             0.0000000000
     13227       107  PMPE      H3S            -5.0668372247      -12.4277781739      -14.1744903947  MEMB      107             0.0000000000
     13228       107  PMPE      C24            -3.1275803625      -12.7198827563      -13.2428707209  MEMB      107             0.0000000000
     13229       107  PMPE      H4R            -2.0551230967      -12.8069654877      -13.5281960662  MEMB      107             0.0000000000
     13230       107  PMPE      H4S            -3.4278060176      -13.6925567104      -12.7877020527  MEMB      107             0.0000000000
     13231       107  PMPE      C25            -3.2584358797      -11.6779155473      -12.1375051750  MEMB      107             0.0000000000
     13232       107  PMPE      H5R            -4.3398671614      -11.5572477019      -11.9007814554  MEMB      107             0.0000000000
     13233       107  PMPE      H5S            -2.8656168353      -10.6912125812      -12.4782577603  MEMB      107             0.0000000000
     13234       107  PMPE      C26            -2.4891606751      -12.1630023685      -10.9018090171  MEMB      107             0.0000000000
     13235       107  PMPE      H6R            -1.4007824807      -12.2215262881      -11.1288967410  MEMB      107             0.0000000000
     13236       107  PMPE      H6S            -2.8205486989      -13.1949913175      -10.6532842606  MEMB      107             0.0000000000
     13237       107  PMPE      C27            -2.6444108735      -11.2217550172       -9.7198526204  MEMB      107             0.0000000000
     13238       107  PMPE      H7R            -3.6486675200      -11.2969930055       -9.2524893362  MEMB      107             0.0000000000
     13239       107  PMPE      H7S            -2.5015062770      -10.1818696329      -10.1042605551  MEMB      107             0.0000000000
     13240       107  PMPE      C28            -1.6338476370      -11.4567782702       -8.6110942739  MEMB      107             0.0000000000
     13241       107  PMPE      H8R            -0.6200973290      -11.4560008307       -9.0623906458  MEMB      107             0.0000000000
     13242       107  PMPE      H8S            -1.7713529918      -12.4602141800       -8.1677820704  MEMB      107             0.0000000000
     13243       107  PMPE      C29            -1.9430879743      -10.3240173821       -7.6154063859  MEMB      107             0.0000000000
     13244       107  PMPE      H9R            -2.9013736487      -10.2986616640       -7.1063470946  MEMB      107             0.0000000000
     13245       107  PMPE      C217           -1.2285596521       -9.0395600500       -8.0162130475  MEMB      107             0.0000000000
     13246       107  PMPE      H17R           -1.7743979152       -8.1370987707       -7.8475101536  MEMB      107             0.0000000000
     13247       107  PMPE      H17S           -0.6028663265       -9.1904775985       -8.8777536548  MEMB      107             0.0000000000
     13248       107  PMPE      C210           -0.9157787159       -9.8037667448       -6.7291114069  MEMB      107             0.0000000000
     13249       107  PMPE      H10R           -0.9358783402       -9.0852374083       -5.8847861890  MEMB      107             0.0000000000
     13250       107  PMPE      C211            0.2298624130      -10.6193766855       -6.8382052658  MEMB      107             0.0000000000
     13251       107  PMPE      H11R            0.7160575324      -10.0525115208       -6.1039181788  MEMB      107             0.0000000000
     13252       107  PMPE      H11S            0.6729336561      -10.4202190594       -7.7880140373  MEMB      107             0.0000000000
     13253       107  PMPE      C212            0.6582834486      -11.8611663770       -6.1026430083  MEMB      107             0.0000000000
     13254       107  PMPE      H12R            1.1235855809      -12.3402768987       -6.9623272054  MEMB      107             0.0000000000
     13255       107  PMPE      H12S           -0.2369965180      -12.4485264332       -6.0298910073  MEMB      107             0.0000000000
     13256       107  PMPE      C213            1.5551313438      -11.7609175628       -4.7989947395  MEMB      107             0.0000000000
     13257       107  PMPE      H13R            2.3937410659      -11.0729759422       -4.5655233175  MEMB      107             0.0000000000
     13258       107  PMPE      H13S            2.1560998197      -12.6702758769       -4.6239065923  MEMB      107             0.0000000000
     13259       107  PMPE      C214            0.5899291695      -11.5890029970       -3.6709898073  MEMB      107             0.0000000000
     13260       107  PMPE      H14R            0.0956425511      -12.5824734874       -3.6223510013  MEMB      107             0.0000000000
     13261       107  PMPE      H14S           -0.1662690399      -10.8498851523       -4.0301818974  MEMB      107             0.0000000000
     13262       107  PMPE      C215            1.3153369479      -11.1670238224       -2.3898948971  MEMB      107             0.0000000000
     13263       107  PMPE      H15R            0.5735712375      -11.0408985636       -1.5732620427  MEMB      107             0.0000000000
     13264       107  PMPE      H15S            1.8002648775      -10.1740404957       -2.5622694226  MEMB      107             0.0000000000
     13265       107  PMPE      C216            2.4583657334      -12.0931936724       -1.9502512548  MEMB      107             0.0000000000
     13266       107  PMPE      H16R            3.3475755728      -11.9242452072       -2.5981815724  MEMB      107             0.0000000000
     13267       107  PMPE      H16S            2.7542746878      -11.8498841019       -0.9089938123  MEMB      107             0.0000000000
     13268       107  PMPE      H16T            2.1827749568      -13.1656949957       -2.0015872680  MEMB      107             0.0000000000
     13269       107  PMPE      C33            -2.3527566927       -5.7703051405      -12.1726758241  MEMB      107             0.0000000000
     13270       107  PMPE      H3X            -2.2830031277       -4.6857500648      -11.9740041757  MEMB      107             0.0000000000
     13271       107  PMPE      H3Y            -1.9516470400       -6.3056224900      -11.2839989717  MEMB      107             0.0000000000
     13272       107  PMPE      C34            -3.8533915662       -6.0542982336      -12.3659423912  MEMB      107             0.0000000000
     13273       107  PMPE      H4X            -4.2639711722       -5.5028602682      -13.2450396019  MEMB      107             0.0000000000
     13274       107  PMPE      H4Y            -4.3432542843       -5.6815694428      -11.4433217935  MEMB      107             0.0000000000
     13275       107  PMPE      C35            -4.1460548886       -7.5424219326      -12.6009691385  MEMB      107             0.0000000000
     13276       107  PMPE      H5X            -3.5275455003       -8.1130636241      -11.8741017752  MEMB      107             0.0000000000
     13277       107  PMPE      H5Y            -3.8063492912       -7.7781363886      -13.6375781967  MEMB      107             0.0000000000
     13278       107  PMPE      C36            -5.6025254912       -8.0041034698      -12.4115436131  MEMB      107             0.0000000000
     13279       107  PMPE      H6X            -5.6785873335       -9.0879559650      -12.6597191875  MEMB      107             0.0000000000
     13280       107  PMPE      H6Y            -6.2734150758       -7.4961160087      -13.1410831567  MEMB      107             0.0000000000
     13281       107  PMPE      C37            -6.1349863100       -7.7838085996      -10.9802795087  MEMB      107             0.0000000000
     13282       107  PMPE      H7X            -7.1909575309       -8.0697521141      -10.9977259138  MEMB      107             0.0000000000
     13283       107  PMPE      H7Y            -6.1024140535       -6.7047834434      -10.7294047430  MEMB      107             0.0000000000
     13284       107  PMPE      C38            -5.4262875430       -8.5369371249       -9.8355626107  MEMB      107             0.0000000000
     13285       107  PMPE      H8X            -4.3582643475       -8.2237392819       -9.8661450633  MEMB      107             0.0000000000
     13286       107  PMPE      H8Y            -5.4718871005       -9.6390639933       -9.9695175253  MEMB      107             0.0000000000
     13287       107  PMPE      C39            -5.9453267809       -8.2032483175       -8.4188852832  MEMB      107             0.0000000000
     13288       107  PMPE      H9X            -6.3509981474       -7.1746664697       -8.3494395255  MEMB      107             0.0000000000
     13289       107  PMPE      H9Y            -5.0882110771       -8.3079442687       -7.7162744567  MEMB      107             0.0000000000
     13290       107  PMPE      C310           -6.9918874263       -9.1496541367       -7.8605072363  MEMB      107             0.0000000000
     13291       107  PMPE      H10X           -7.7456551578       -9.3428399853       -8.6425657285  MEMB      107             0.0000000000
     13292       107  PMPE      H10Y           -7.5487230735       -8.6550052009       -7.0346629547  MEMB      107             0.0000000000
     13293       107  PMPE      C311           -6.3494508889      -10.4587749843       -7.3907743273  MEMB      107             0.0000000000
     13294       107  PMPE      H11X           -5.5909459569      -10.8641022499       -8.0847132624  MEMB      107             0.0000000000
     13295       107  PMPE      H11Y           -7.1804459074      -11.1366574672       -7.4480135346  MEMB      107             0.0000000000
     13296       107  PMPE      C312           -5.8477338595      -10.5102964412       -5.9388993542  MEMB      107             0.0000000000
     13297       107  PMPE      H12X           -6.7456150966      -10.3225314916       -5.2803985064  MEMB      107             0.0000000000
     13298       107  PMPE      H12Y           -5.0753973103       -9.7585936683       -5.7851606489  MEMB      107             0.0000000000
     13299       107  PMPE      C313           -4.9961453843      -11.7467527914       -5.5355383278  MEMB      107             0.0000000000
     13300       107  PMPE      H13X           -4.5424289140      -12.4705564989       -6.2169777415  MEMB      107             0.0000000000
     13301       107  PMPE      H13Y           -5.7453245030      -12.3749726385       -5.6438799957  MEMB      107             0.0000000000
     13302       107  PMPE      C314           -4.7369720621      -11.9336555051       -4.0514535571  MEMB      107             0.0000000000
     13303       107  PMPE      H14X           -5.4566544173      -11.2560646813       -3.5341305823  MEMB      107             0.0000000000
     13304       107  PMPE      H14Y           -3.7878557636      -11.4245648423       -3.9030410498  MEMB      107             0.0000000000
     13305       107  PMPE      C315           -4.5679620539      -13.3805930291       -3.4668818279  MEMB      107             0.0000000000
     13306       107  PMPE      H15X           -4.1990205399      -14.1867278987       -4.1117466737  MEMB      107             0.0000000000
     13307       107  PMPE      H15Y           -5.4409998545      -13.9525974978       -3.0054677132  MEMB      107             0.0000000000
     13308       107  PMPE      C316           -3.8727937214      -13.1659373999       -2.2344510661  MEMB      107             0.0000000000
     13309       107  PMPE      H16X           -3.5069007469      -14.1044378610       -1.9065133115  MEMB      107             0.0000000000
     13310       107  PMPE      H16Y           -4.7264892923      -12.7762388949       -1.6263205495  MEMB      107             0.0000000000
     13311       107  PMPE      H16Z           -2.9812089569      -12.5554063006       -2.2433984330  MEMB      107             0.0000000000
     13312       108  PMPE      N               8.4910920704        8.5717815904      -20.2769230969  MEMB      108             0.0000000000
     13313       108  PMPE      HN1             9.3068506683        9.0261841944      -20.7312110474  MEMB      108             0.0000000000
     13314       108  PMPE      HN2             7.6257813059        8.9112445271      -20.7377866982  MEMB      108             0.0000000000
     13315       108  PMPE      HN3             8.4825779381        8.8375663677      -19.2671882201  MEMB      108             0.0000000000
     13316       108  PMPE      C12             8.7432952824        7.0902885849      -20.4356734253  MEMB      108             0.0000000000
     13317       108  PMPE      H12A            8.3594557411        6.8002857008      -21.4357769200  MEMB      108             0.0000000000
     13318       108  PMPE      H12B            8.2100257101        6.5291439121      -19.6407589394  MEMB      108             0.0000000000
     13319       108  PMPE      C11            10.2525506741        6.7875678627      -20.4061321392  MEMB      108             0.0000000000
     13320       108  PMPE      H11A           10.7429023180        7.4204491694      -21.1764638944  MEMB      108             0.0000000000
     13321       108  PMPE      H11B           10.4181589755        5.7312463612      -20.7438400650  MEMB      108             0.0000000000
     13322       108  PMPE      P              11.0593600455        5.7875383348      -18.1574619476  MEMB      108             0.0000000000
     13323       108  PMPE      O13            12.2657727433        5.0786758323      -18.6299693941  MEMB      108             0.0000000000
     13324       108  PMPE      O14             9.7562959544        5.0922604817      -18.1423541275  MEMB      108             0.0000000000
     13325       108  PMPE      O11            11.2998238677        6.5103689872      -16.7651491792  MEMB      108             0.0000000000
     13326       108  PMPE      O12            10.8387421648        7.0588264790      -19.1229246229  MEMB      108             0.0000000000
     13327       108  PMPE      C1             12.2379209296        7.5940395214      -16.6716173973  MEMB      108             0.0000000000
     13328       108  PMPE      HA             11.7744986783        8.5211821745      -17.0808860876  MEMB      108             0.0000000000
     13329       108  PMPE      HB             13.1765037928        7.3759720767      -17.2443881174  MEMB      108             0.0000000000
     13330       108  PMPE      C2             12.7054102226        7.8989491433      -15.2040087207  MEMB      108             0.0000000000
     13331       108  PMPE      HS             13.7085588223        8.3918110728      -15.2704743840  MEMB      108             0.0000000000
     13332       108  PMPE      O21            12.7482387960        6.7294594755      -14.3632984890  MEMB      108             0.0000000000
     13333       108  PMPE      C21            13.7829236354        5.9433558627      -14.5797216780  MEMB      108             0.0000000000
     13334       108  PMPE      O22            14.7257895985        6.1749562328      -15.3007645133  MEMB      108             0.0000000000
     13335       108  PMPE      C22            13.6864333727        4.6932972890      -13.6904791695  MEMB      108             0.0000000000
     13336       108  PMPE      H2R            14.4583409223        3.9701465140      -14.0291714285  MEMB      108             0.0000000000
     13337       108  PMPE      H2S            12.6756523032        4.2760197196      -13.8692672439  MEMB      108             0.0000000000
     13338       108  PMPE      C3             11.7815356625        8.9327214377      -14.5147729809  MEMB      108             0.0000000000
     13339       108  PMPE      HX             10.7397653590        8.5475249537      -14.4527593118  MEMB      108             0.0000000000
     13340       108  PMPE      HY             11.7541850044        9.8251824081      -15.1798213937  MEMB      108             0.0000000000
     13341       108  PMPE      O31            12.3065093295        9.3312264177      -13.2317330439  MEMB      108             0.0000000000
     13342       108  PMPE      C31            11.8858209343        8.6589647334      -12.1672890060  MEMB      108             0.0000000000
     13343       108  PMPE      O32            11.0816573594        7.7482481474      -12.1426346028  MEMB      108             0.0000000000
     13344       108  PMPE      C32            12.5044602336        9.3256021680      -10.9399615570  MEMB      108             0.0000000000
     13345       108  PMPE      H2X            13.4169313346        9.8738178740      -11.2558042512  MEMB      108             0.0000000000
     13346       108  PMPE      H2Y            12.8038993420        8.5683340645      -10.1919947026  MEMB      108             0.0000000000
     13347       108  PMPE      C23            13.8617692725        4.9877847202      -12.1780159882  MEMB      108             0.0000000000
     13348       108  PMPE      H3R            13.7643118217        6.0879188994      -12.0385694458  MEMB      108             0.0000000000
     13349       108  PMPE      H3S            14.8639783089        4.6583991138      -11.8259615850  MEMB      108             0.0000000000
     13350       108  PMPE      C24            12.7828195872        4.3206583366      -11.3190905171  MEMB      108             0.0000000000
     13351       108  PMPE      H4R            12.8224130905        3.2253488471      -11.4986067993  MEMB      108             0.0000000000
     13352       108  PMPE      H4S            11.8025319196        4.7211095443      -11.6767269222  MEMB      108             0.0000000000
     13353       108  PMPE      C25            12.9391566084        4.5174609779       -9.8051893970  MEMB      108             0.0000000000
     13354       108  PMPE      H5R            13.1868096786        5.5761459773       -9.5959589919  MEMB      108             0.0000000000
     13355       108  PMPE      H5S            13.7730605153        3.8720660760       -9.4485903354  MEMB      108             0.0000000000
     13356       108  PMPE      C26            11.7186418056        4.1059329666       -8.9666233009  MEMB      108             0.0000000000
     13357       108  PMPE      H6R            11.7379436864        2.9910932389       -8.9664511089  MEMB      108             0.0000000000
     13358       108  PMPE      H6S            10.7644315228        4.4977345762       -9.3746420207  MEMB      108             0.0000000000
     13359       108  PMPE      C27            11.7961940812        4.5823481234       -7.5205853733  MEMB      108             0.0000000000
     13360       108  PMPE      H7R            12.3364998714        5.5268572559       -7.4114083125  MEMB      108             0.0000000000
     13361       108  PMPE      H7S            12.3982963669        3.9051843649       -6.9857803766  MEMB      108             0.0000000000
     13362       108  PMPE      C28            10.5523285542        4.5584092263       -6.6538201344  MEMB      108             0.0000000000
     13363       108  PMPE      H8R             9.8265029437        5.2925419366       -7.0192456276  MEMB      108             0.0000000000
     13364       108  PMPE      H8S            10.8635156929        4.7498539437       -5.5988517047  MEMB      108             0.0000000000
     13365       108  PMPE      C29             9.9629127980        3.2284172206       -6.6113885242  MEMB      108             0.0000000000
     13366       108  PMPE      H9R            10.5443779962        2.4088955193       -6.2579260554  MEMB      108             0.0000000000
     13367       108  PMPE      C217            8.7789140462        2.8920701911       -7.4409647667  MEMB      108             0.0000000000
     13368       108  PMPE      H17R            8.9926587834        1.9021924458       -7.6918533857  MEMB      108             0.0000000000
     13369       108  PMPE      H17S            8.4698340530        3.6606139602       -8.1021435830  MEMB      108             0.0000000000
     13370       108  PMPE      C210            8.6603194074        3.0953810700       -5.9670844066  MEMB      108             0.0000000000
     13371       108  PMPE      H10R            8.8627274459        2.2748851517       -5.3042901260  MEMB      108             0.0000000000
     13372       108  PMPE      C211            7.7998417406        4.2356496497       -5.5862992250  MEMB      108             0.0000000000
     13373       108  PMPE      H11R            6.7747116672        3.8661957639       -5.7013593533  MEMB      108             0.0000000000
     13374       108  PMPE      H11S            7.6735718876        4.9885259905       -6.3609569930  MEMB      108             0.0000000000
     13375       108  PMPE      C212            8.1825747158        4.7992006771       -4.1935337337  MEMB      108             0.0000000000
     13376       108  PMPE      H12R            7.2619241129        5.3490452675       -3.8447237461  MEMB      108             0.0000000000
     13377       108  PMPE      H12S            8.9756225693        5.5334591738       -4.2722778489  MEMB      108             0.0000000000
     13378       108  PMPE      C213            8.8080068489        3.8844358198       -3.0911771970  MEMB      108             0.0000000000
     13379       108  PMPE      H13R            9.4633020710        3.0154322633       -3.1679904772  MEMB      108             0.0000000000
     13380       108  PMPE      H13S            8.2668819597        2.9547141295       -3.1411400742  MEMB      108             0.0000000000
     13381       108  PMPE      C214            8.8075441827        4.6236059763       -1.7018358806  MEMB      108             0.0000000000
     13382       108  PMPE      H14R            7.9433536065        5.3063323284       -1.5068806120  MEMB      108             0.0000000000
     13383       108  PMPE      H14S            9.7810239239        5.1175418507       -1.6759934812  MEMB      108             0.0000000000
     13384       108  PMPE      C215            8.6431697620        3.7420088846       -0.4757207795  MEMB      108             0.0000000000
     13385       108  PMPE      H15R            9.2214954679        2.9016700863       -0.9242263379  MEMB      108             0.0000000000
     13386       108  PMPE      H15S            7.6690049327        3.2632908494       -0.2183035845  MEMB      108             0.0000000000
     13387       108  PMPE      C216            8.8586872388        4.4122091777        0.8724637007  MEMB      108             0.0000000000
     13388       108  PMPE      H16R            9.8336392326        4.9047813549        0.8823713122  MEMB      108             0.0000000000
     13389       108  PMPE      H16S            7.9375461753        4.9794755218        1.1272137330  MEMB      108             0.0000000000
     13390       108  PMPE      H16T            8.9148190786        3.7975383018        1.7738457339  MEMB      108             0.0000000000
     13391       108  PMPE      C33            11.5166817224       10.3674246322      -10.3826443415  MEMB      108             0.0000000000
     13392       108  PMPE      H3X            11.2969547919       11.0922667167      -11.2088037710  MEMB      108             0.0000000000
     13393       108  PMPE      H3Y            12.0103084207       10.9353024881       -9.5666987454  MEMB      108             0.0000000000
     13394       108  PMPE      C34            10.1926212823        9.8002441495       -9.8358566315  MEMB      108             0.0000000000
     13395       108  PMPE      H4X             9.6204499213        9.4167438481      -10.7164874477  MEMB      108             0.0000000000
     13396       108  PMPE      H4Y             9.6270718061       10.6526646925       -9.3991022722  MEMB      108             0.0000000000
     13397       108  PMPE      C35            10.2726387862        8.6397802103       -8.8088670226  MEMB      108             0.0000000000
     13398       108  PMPE      H5X            11.0660516543        7.9291471604       -9.1202571528  MEMB      108             0.0000000000
     13399       108  PMPE      H5Y             9.3028368206        8.0897809978       -8.8324226449  MEMB      108             0.0000000000
     13400       108  PMPE      C36            10.4904773760        9.0392903977       -7.3330978789  MEMB      108             0.0000000000
     13401       108  PMPE      H6X             9.8219592458        9.8947938378       -7.0938143879  MEMB      108             0.0000000000
     13402       108  PMPE      H6Y            11.5371572477        9.3987900374       -7.2684252121  MEMB      108             0.0000000000
     13403       108  PMPE      C37            10.2056720996        7.8808979400       -6.3325179825  MEMB      108             0.0000000000
     13404       108  PMPE      H7X            10.9242351029        7.0504846827       -6.4894617252  MEMB      108             0.0000000000
     13405       108  PMPE      H7Y             9.1981669169        7.4638352552       -6.5565911287  MEMB      108             0.0000000000
     13406       108  PMPE      C38            10.2045935753        8.2207706856       -4.8311083194  MEMB      108             0.0000000000
     13407       108  PMPE      H8X             9.5138777657        7.5289706995       -4.2880270594  MEMB      108             0.0000000000
     13408       108  PMPE      H8Y             9.8112883166        9.2388730289       -4.6325843648  MEMB      108             0.0000000000
     13409       108  PMPE      C39            11.5766636819        8.0450734918       -4.1743190680  MEMB      108             0.0000000000
     13410       108  PMPE      H9X            12.1981557400        8.9340512542       -4.4059724797  MEMB      108             0.0000000000
     13411       108  PMPE      H9Y            12.0865598009        7.1340692972       -4.5619723130  MEMB      108             0.0000000000
     13412       108  PMPE      C310           11.3930361691        7.9518226545       -2.6643275149  MEMB      108             0.0000000000
     13413       108  PMPE      H10X           10.8760915181        6.9955079906       -2.4226809295  MEMB      108             0.0000000000
     13414       108  PMPE      H10Y           10.7491157254        8.8153897592       -2.3849346687  MEMB      108             0.0000000000
     13415       108  PMPE      C311           12.6686216858        8.0481926378       -1.8363763012  MEMB      108             0.0000000000
     13416       108  PMPE      H11X           13.0886605508        9.0658844288       -1.9081071322  MEMB      108             0.0000000000
     13417       108  PMPE      H11Y           13.3793531519        7.3490542228       -2.2644161408  MEMB      108             0.0000000000
     13418       108  PMPE      C312           12.4878017510        7.6445388912       -0.3802295195  MEMB      108             0.0000000000
     13419       108  PMPE      H12X           13.3328001833        8.0146909538        0.2494798046  MEMB      108             0.0000000000
     13420       108  PMPE      H12Y           12.4302425600        6.5453567774       -0.3114899584  MEMB      108             0.0000000000
     13421       108  PMPE      C313           11.2017792672        8.1616721200        0.1638978437  MEMB      108             0.0000000000
     13422       108  PMPE      H13X           11.0743578259        7.8056042755        1.2166069387  MEMB      108             0.0000000000
     13423       108  PMPE      H13Y           10.2980152397        7.7981968806       -0.3722718230  MEMB      108             0.0000000000
     13424       108  PMPE      C314           11.2737969226        9.6524944225        0.1052289859  MEMB      108             0.0000000000
     13425       108  PMPE      H14X           11.0965810435       10.2233734044       -0.8270360107  MEMB      108             0.0000000000
     13426       108  PMPE      H14Y           12.1451667684       10.0550894247        0.6632513686  MEMB      108             0.0000000000
     13427       108  PMPE      C315           10.1538353854       10.0274672355        0.8920119022  MEMB      108             0.0000000000
     13428       108  PMPE      H15X           10.3498239796       11.1187450679        0.9291862776  MEMB      108             0.0000000000
     13429       108  PMPE      H15Y           10.4454021850        9.5539137247        1.8624464803  MEMB      108             0.0000000000
     13430       108  PMPE      C316            8.7479538291        9.5488821120        0.4890769187  MEMB      108             0.0000000000
     13431       108  PMPE      H16X            7.9221169658       10.0240650026        1.0568294770  MEMB      108             0.0000000000
     13432       108  PMPE      H16Y            8.6815878363        8.4881620191        0.8164773399  MEMB      108             0.0000000000
     13433       108  PMPE      H16Z            8.4059068573        9.8150782628       -0.5063708221  MEMB      108             0.0000000000
     13434       109  PMPE      N              -0.6749463526       12.2049148279      -21.1271132174  MEMB      109             0.0000000000
     13435       109  PMPE      HN1            -0.4863996700       11.3993293032      -21.7502009966  MEMB      109             0.0000000000
     13436       109  PMPE      HN2            -1.5275663541       12.7313246290      -21.4008591523  MEMB      109             0.0000000000
     13437       109  PMPE      HN3             0.1671928556       12.8224560614      -21.1811892692  MEMB      109             0.0000000000
     13438       109  PMPE      C12            -0.8916083664       11.6816995764      -19.7332535745  MEMB      109             0.0000000000
     13439       109  PMPE      H12A           -0.7675178322       12.5268259038      -19.0234998622  MEMB      109             0.0000000000
     13440       109  PMPE      H12B           -0.1446934065       10.8804773139      -19.5663396041  MEMB      109             0.0000000000
     13441       109  PMPE      C11            -2.2370286771       10.9871275460      -19.5013046621  MEMB      109             0.0000000000
     13442       109  PMPE      H11A           -2.1678028115       10.5365865866      -18.4771174545  MEMB      109             0.0000000000
     13443       109  PMPE      H11B           -2.3549249287       10.1352621400      -20.2065480100  MEMB      109             0.0000000000
     13444       109  PMPE      P              -4.0509480028       12.5140206692      -18.3520268843  MEMB      109             0.0000000000
     13445       109  PMPE      O13            -5.2424448970       13.2591688057      -18.7588720302  MEMB      109             0.0000000000
     13446       109  PMPE      O14            -2.9776250430       13.1489217137      -17.5555678154  MEMB      109             0.0000000000
     13447       109  PMPE      O11            -4.5399659297       11.2318274808      -17.5956810989  MEMB      109             0.0000000000
     13448       109  PMPE      O12            -3.3266813189       11.8914597335      -19.6434729665  MEMB      109             0.0000000000
     13449       109  PMPE      C1             -5.2778580455       10.2325660138      -18.2582699463  MEMB      109             0.0000000000
     13450       109  PMPE      HA             -4.7163613074        9.7927064658      -19.1184704906  MEMB      109             0.0000000000
     13451       109  PMPE      HB             -6.2536128406       10.5886494015      -18.6671837992  MEMB      109             0.0000000000
     13452       109  PMPE      C2             -5.4039901858        9.1068748469      -17.2494625471  MEMB      109             0.0000000000
     13453       109  PMPE      HS             -6.1573248465        8.4327524630      -17.7264540351  MEMB      109             0.0000000000
     13454       109  PMPE      O21            -5.9320716913        9.2971247579      -15.9884337531  MEMB      109             0.0000000000
     13455       109  PMPE      C21            -6.9956843377        9.9453063334      -15.9821000452  MEMB      109             0.0000000000
     13456       109  PMPE      O22            -7.7291356600       10.3104892950      -16.8708638299  MEMB      109             0.0000000000
     13457       109  PMPE      C22            -7.2136543525       10.1977001742      -14.5842089895  MEMB      109             0.0000000000
     13458       109  PMPE      H2R            -8.2214441275       10.5513181136      -14.7458356365  MEMB      109             0.0000000000
     13459       109  PMPE      H2S            -6.4001546117       10.9542269818      -14.4717662080  MEMB      109             0.0000000000
     13460       109  PMPE      C3             -3.9762404721        8.5525126062      -16.9234240684  MEMB      109             0.0000000000
     13461       109  PMPE      HX             -3.5491559360        8.2950385581      -17.9092521747  MEMB      109             0.0000000000
     13462       109  PMPE      HY             -4.0520293670        7.6353749931      -16.2844544415  MEMB      109             0.0000000000
     13463       109  PMPE      O31            -3.0650010904        9.4193352798      -16.3452448727  MEMB      109             0.0000000000
     13464       109  PMPE      C31            -3.0910520538        9.3791492373      -15.0512114842  MEMB      109             0.0000000000
     13465       109  PMPE      O32            -3.5266042621        8.4879818475      -14.3363391252  MEMB      109             0.0000000000
     13466       109  PMPE      C32            -2.6694023807       10.7145378371      -14.6518541629  MEMB      109             0.0000000000
     13467       109  PMPE      H2X            -3.5491440630       11.2405553272      -14.2373180023  MEMB      109             0.0000000000
     13468       109  PMPE      H2Y            -2.3061849227       11.3235815605      -15.5167245506  MEMB      109             0.0000000000
     13469       109  PMPE      C23            -7.5094035222        9.1510138171      -13.4893862194  MEMB      109             0.0000000000
     13470       109  PMPE      H3R            -6.5314858099        8.7981311223      -13.1202077581  MEMB      109             0.0000000000
     13471       109  PMPE      H3S            -8.0802162053        8.3865885348      -14.0420161140  MEMB      109             0.0000000000
     13472       109  PMPE      C24            -8.5265399053        9.4129586311      -12.3282084102  MEMB      109             0.0000000000
     13473       109  PMPE      H4R            -8.4844994217        8.5353298058      -11.6512063549  MEMB      109             0.0000000000
     13474       109  PMPE      H4S            -9.5560014396        9.6790808538      -12.6557804970  MEMB      109             0.0000000000
     13475       109  PMPE      C25            -8.1194403112       10.2381836066      -11.1822971721  MEMB      109             0.0000000000
     13476       109  PMPE      H5R            -8.9000436697       10.6761535628      -10.5014917342  MEMB      109             0.0000000000
     13477       109  PMPE      H5S            -8.5197151031       11.2454118551      -11.4147924220  MEMB      109             0.0000000000
     13478       109  PMPE      C26            -6.5387212938        9.8253873560      -10.7448486393  MEMB      109             0.0000000000
     13479       109  PMPE      H6R            -5.8080836956       10.5194800435      -10.1704543799  MEMB      109             0.0000000000
     13480       109  PMPE      H6S            -5.8217806597        9.6567523664      -11.5340075930  MEMB      109             0.0000000000
     13481       109  PMPE      C27            -6.3690350288        8.9293524134       -9.5960667230  MEMB      109             0.0000000000
     13482       109  PMPE      H7R            -5.3874204149        9.0873194951       -9.0185523472  MEMB      109             0.0000000000
     13483       109  PMPE      H7S            -6.9866693217        8.0770985016       -9.8457070262  MEMB      109             0.0000000000
     13484       109  PMPE      C28            -7.4518451077        9.2191204262       -8.6520666949  MEMB      109             0.0000000000
     13485       109  PMPE      H8R            -8.3253056996        9.6586112210       -9.0743834919  MEMB      109             0.0000000000
     13486       109  PMPE      H8S            -6.8719128242       10.1378993617       -8.8103732647  MEMB      109             0.0000000000
     13487       109  PMPE      C29            -7.5836946538        9.0009451195       -7.0154605341  MEMB      109             0.0000000000
     13488       109  PMPE      H9R            -6.6086522850        9.2641408693       -6.6090786647  MEMB      109             0.0000000000
     13489       109  PMPE      C217           -8.7646744919        8.2079420133       -6.5655522008  MEMB      109             0.0000000000
     13490       109  PMPE      H17R           -8.1695385450        7.4667252799       -6.0147861419  MEMB      109             0.0000000000
     13491       109  PMPE      H17S           -9.1894281165        8.1721092690       -7.5613992144  MEMB      109             0.0000000000
     13492       109  PMPE      C210           -8.7787984889        9.5731388628       -5.9333885153  MEMB      109             0.0000000000
     13493       109  PMPE      H10R           -8.5293160334        9.4055809649       -4.8779027319  MEMB      109             0.0000000000
     13494       109  PMPE      C211           -9.9408791140       10.9404231519       -6.0710787195  MEMB      109             0.0000000000
     13495       109  PMPE      H11R          -10.6982826688       11.0345685378       -5.3286831686  MEMB      109             0.0000000000
     13496       109  PMPE      H11S          -10.2394353960       10.9104464764       -7.1126801899  MEMB      109             0.0000000000
     13497       109  PMPE      C212           -9.9277339323       12.6404334104       -5.9205190697  MEMB      109             0.0000000000
     13498       109  PMPE      H12R          -10.8341639968       13.0611462909       -6.3387197051  MEMB      109             0.0000000000
     13499       109  PMPE      H12S           -9.4154886106       13.2948173539       -6.6261982784  MEMB      109             0.0000000000
     13500       109  PMPE      C213           -9.1505564531       13.3344544209       -4.7305073210  MEMB      109             0.0000000000
     13501       109  PMPE      H13R           -8.0797255749       13.2712493370       -4.8223974066  MEMB      109             0.0000000000
     13502       109  PMPE      H13S           -8.9511815439       12.6775277751       -3.9167121618  MEMB      109             0.0000000000
     13503       109  PMPE      C214           -8.5062696339       14.7147979059       -4.8942770677  MEMB      109             0.0000000000
     13504       109  PMPE      H14R           -9.4333854155       15.1934356002       -4.5828170433  MEMB      109             0.0000000000
     13505       109  PMPE      H14S           -8.1986989584       14.9482720861       -5.9525639321  MEMB      109             0.0000000000
     13506       109  PMPE      C215           -7.2700908446       14.9569117665       -3.9603244573  MEMB      109             0.0000000000
     13507       109  PMPE      H15R           -7.1815628372       16.0533338387       -3.9370615537  MEMB      109             0.0000000000
     13508       109  PMPE      H15S           -6.3023720894       14.5836026890       -4.3782445851  MEMB      109             0.0000000000
     13509       109  PMPE      C216           -7.3983278227       14.3840848997       -2.5391591461  MEMB      109             0.0000000000
     13510       109  PMPE      H16R           -6.4875881355       14.6022417278       -1.9481486101  MEMB      109             0.0000000000
     13511       109  PMPE      H16S           -8.2870668818       14.8300372807       -2.0546568785  MEMB      109             0.0000000000
     13512       109  PMPE      H16T           -7.5128943059       13.2820282154       -2.5059070728  MEMB      109             0.0000000000
     13513       109  PMPE      C33            -1.5593643715       10.5992502916      -13.6819352416  MEMB      109             0.0000000000
     13514       109  PMPE      H3X            -0.6330565931       10.1527991714      -14.1326280064  MEMB      109             0.0000000000
     13515       109  PMPE      H3Y            -1.7567083491       10.0340690849      -12.7403154269  MEMB      109             0.0000000000
     13516       109  PMPE      C34            -1.2740019690       12.0384021029      -13.4036382513  MEMB      109             0.0000000000
     13517       109  PMPE      H4X            -0.8954974449       12.6296625636      -14.2610248750  MEMB      109             0.0000000000
     13518       109  PMPE      H4Y            -0.5564974009       11.7401178535      -12.6696991116  MEMB      109             0.0000000000
     13519       109  PMPE      C35            -2.1045684667       12.8591060403      -12.4706289679  MEMB      109             0.0000000000
     13520       109  PMPE      H5X            -2.6648603908       12.1966145833      -11.7926679168  MEMB      109             0.0000000000
     13521       109  PMPE      H5Y            -2.7241039885       13.5187959431      -13.1028610232  MEMB      109             0.0000000000
     13522       109  PMPE      C36            -1.3099832998       13.7518105891      -11.5627147198  MEMB      109             0.0000000000
     13523       109  PMPE      H6X            -0.7154340818       14.4340987378      -12.2134746027  MEMB      109             0.0000000000
     13524       109  PMPE      H6Y            -0.5990272629       13.1896257045      -10.9421598808  MEMB      109             0.0000000000
     13525       109  PMPE      C37            -2.2630270015       14.5480900562      -10.7049692208  MEMB      109             0.0000000000
     13526       109  PMPE      H7X            -2.9825893839       15.0016879499      -11.3989680254  MEMB      109             0.0000000000
     13527       109  PMPE      H7Y            -1.6966587042       15.2449738503      -10.1080818556  MEMB      109             0.0000000000
     13528       109  PMPE      C38            -3.1499102672       13.8700202962       -9.6951586119  MEMB      109             0.0000000000
     13529       109  PMPE      H8X            -3.8199722117       13.2426896558      -10.3061862847  MEMB      109             0.0000000000
     13530       109  PMPE      H8Y            -3.7651840388       14.6706182526       -9.2168749836  MEMB      109             0.0000000000
     13531       109  PMPE      C39            -2.4054131324       13.0364022594       -8.6608523579  MEMB      109             0.0000000000
     13532       109  PMPE      H9X            -1.7004292392       13.6525325730       -8.0567478315  MEMB      109             0.0000000000
     13533       109  PMPE      H9Y            -1.8359387932       12.2398654762       -9.1790790175  MEMB      109             0.0000000000
     13534       109  PMPE      C310           -3.3732005323       12.3516826549       -7.7268630843  MEMB      109             0.0000000000
     13535       109  PMPE      H10X           -2.9137825749       11.4687814362       -7.2495536753  MEMB      109             0.0000000000
     13536       109  PMPE      H10Y           -4.1799256377       11.8899075480       -8.3254222782  MEMB      109             0.0000000000
     13537       109  PMPE      C311           -3.8635362541       13.3613213948       -6.6889605537  MEMB      109             0.0000000000
     13538       109  PMPE      H11X           -4.5294887992       12.8260237477       -6.0760713133  MEMB      109             0.0000000000
     13539       109  PMPE      H11Y           -4.4868654177       14.1615928882       -7.1274680843  MEMB      109             0.0000000000
     13540       109  PMPE      C312           -2.9173960771       13.7905548005       -5.5595247726  MEMB      109             0.0000000000
     13541       109  PMPE      H12X           -3.5407172003       14.2975932709       -4.7741515012  MEMB      109             0.0000000000
     13542       109  PMPE      H12Y           -2.1225551720       14.4640867325       -5.8951624898  MEMB      109             0.0000000000
     13543       109  PMPE      C313           -2.2139257700       12.6476752454       -4.8583747823  MEMB      109             0.0000000000
     13544       109  PMPE      H13X           -1.4602769886       13.0204322742       -4.1370549366  MEMB      109             0.0000000000
     13545       109  PMPE      H13Y           -1.7894872018       11.8612373189       -5.5237756840  MEMB      109             0.0000000000
     13546       109  PMPE      C314           -3.1630248901       12.0162126533       -3.9408309000  MEMB      109             0.0000000000
     13547       109  PMPE      H14X           -3.6358253507       11.2940780938       -4.6697039553  MEMB      109             0.0000000000
     13548       109  PMPE      H14Y           -3.9932610390       12.6853906312       -3.6476881043  MEMB      109             0.0000000000
     13549       109  PMPE      C315           -2.4028505907       11.5408896467       -2.6659373867  MEMB      109             0.0000000000
     13550       109  PMPE      H15X           -1.3542410341       11.6719428042       -2.4541380355  MEMB      109             0.0000000000
     13551       109  PMPE      H15Y           -1.9723990196       10.6226278098       -3.0777333887  MEMB      109             0.0000000000
     13552       109  PMPE      C316           -3.2401546450       11.4661774334       -1.3751134954  MEMB      109             0.0000000000
     13553       109  PMPE      H16X           -3.1674821611       10.5568572695       -0.7215681875  MEMB      109             0.0000000000
     13554       109  PMPE      H16Y           -4.1770916235       11.4400524671       -1.7997247477  MEMB      109             0.0000000000
     13555       109  PMPE      H16Z           -3.4953252841       12.3380163211       -0.7662788161  MEMB      109             0.0000000000
     13556       110  PMPE      N               6.5178156593       13.9268040911      -21.5542990127  MEMB      110             0.0000000000
     13557       110  PMPE      HN1             6.1060043848       13.4271101943      -22.3706590663  MEMB      110             0.0000000000
     13558       110  PMPE      HN2             7.1750450149       14.6566276508      -21.9221358357  MEMB      110             0.0000000000
     13559       110  PMPE      HN3             7.0183955321       13.2587694930      -20.9298316036  MEMB      110             0.0000000000
     13560       110  PMPE      C12             5.3990197809       14.5070133051      -20.7273260061  MEMB      110             0.0000000000
     13561       110  PMPE      H12A            4.6042275969       13.7295527912      -20.7183944386  MEMB      110             0.0000000000
     13562       110  PMPE      H12B            5.0229713061       15.4112554995      -21.2392258905  MEMB      110             0.0000000000
     13563       110  PMPE      C11             5.7909402568       14.7584218185      -19.2560606476  MEMB      110             0.0000000000
     13564       110  PMPE      H11A            4.8496293244       14.9406069362      -18.6738473609  MEMB      110             0.0000000000
     13565       110  PMPE      H11B            6.3916588253       15.6798316974      -19.1053479756  MEMB      110             0.0000000000
     13566       110  PMPE      P               5.8280850064       12.3937306708      -18.1203027475  MEMB      110             0.0000000000
     13567       110  PMPE      O13             6.8314099833       11.6466218098      -17.3407603155  MEMB      110             0.0000000000
     13568       110  PMPE      O14             5.2010550316       11.6775906812      -19.2690108837  MEMB      110             0.0000000000
     13569       110  PMPE      O11             4.6933213617       13.0711976046      -17.2206175517  MEMB      110             0.0000000000
     13570       110  PMPE      O12             6.5558104507       13.6568778483      -18.7684032668  MEMB      110             0.0000000000
     13571       110  PMPE      C1              3.8541031954       12.1921189401      -16.4444925960  MEMB      110             0.0000000000
     13572       110  PMPE      HA              4.3678422704       11.8056226311      -15.5446303936  MEMB      110             0.0000000000
     13573       110  PMPE      HB              3.3881131287       11.4253875465      -17.1048934365  MEMB      110             0.0000000000
     13574       110  PMPE      C2              2.7082261214       12.9877615640      -15.8664264260  MEMB      110             0.0000000000
     13575       110  PMPE      HS              2.3061424998       13.4059604833      -16.8165602494  MEMB      110             0.0000000000
     13576       110  PMPE      O21             3.3105369693       13.8263104874      -14.7886363539  MEMB      110             0.0000000000
     13577       110  PMPE      C21             2.6071363324       14.6603283157      -13.9548629703  MEMB      110             0.0000000000
     13578       110  PMPE      O22             1.4182909263       14.8384750046      -14.0212487231  MEMB      110             0.0000000000
     13579       110  PMPE      C22             3.4350102380       15.5211659089      -13.0315850854  MEMB      110             0.0000000000
     13580       110  PMPE      H2R             4.4590218604       15.5963242434      -13.4741533872  MEMB      110             0.0000000000
     13581       110  PMPE      H2S             3.4771906623       15.0357824133      -12.0496476914  MEMB      110             0.0000000000
     13582       110  PMPE      C3              1.4294504776       12.3391905684      -15.3400533428  MEMB      110             0.0000000000
     13583       110  PMPE      HX              0.9573585886       11.7545044424      -16.1614804179  MEMB      110             0.0000000000
     13584       110  PMPE      HY              0.6840147919       13.1634514741      -15.1828405213  MEMB      110             0.0000000000
     13585       110  PMPE      O31             1.7201233487       11.4923384520      -14.2345189296  MEMB      110             0.0000000000
     13586       110  PMPE      C31             1.5962049749       11.9369661081      -13.0075228323  MEMB      110             0.0000000000
     13587       110  PMPE      O32             1.2344311953       12.9873168147      -12.5763040391  MEMB      110             0.0000000000
     13588       110  PMPE      C32             1.6056040546       10.8065157378      -12.0608912246  MEMB      110             0.0000000000
     13589       110  PMPE      H2X             2.6564129546       10.5471892366      -12.1843203367  MEMB      110             0.0000000000
     13590       110  PMPE      H2Y             0.9702004725        9.9671743652      -12.3861644727  MEMB      110             0.0000000000
     13591       110  PMPE      C23             2.8063723077       16.9370807886      -12.7240172756  MEMB      110             0.0000000000
     13592       110  PMPE      H3R             2.5969396537       17.7213801919      -13.4609295906  MEMB      110             0.0000000000
     13593       110  PMPE      H3S             3.5390733771       17.3691540043      -12.1097831250  MEMB      110             0.0000000000
     13594       110  PMPE      C24             1.5032345713       17.3931431156      -12.3706800854  MEMB      110             0.0000000000
     13595       110  PMPE      H4R             1.0705461787       16.9409047051      -13.2685758119  MEMB      110             0.0000000000
     13596       110  PMPE      H4S             1.2089429375       18.4928880197      -12.4140522043  MEMB      110             0.0000000000
     13597       110  PMPE      C25             1.5897432008       16.8415489545      -11.0550923376  MEMB      110             0.0000000000
     13598       110  PMPE      H5R             1.2726224557       17.6721103924      -10.4178945846  MEMB      110             0.0000000000
     13599       110  PMPE      H5S             2.6168170324       16.5177538904      -10.7300716348  MEMB      110             0.0000000000
     13600       110  PMPE      C26             0.8627343642       15.6493576923      -10.9435673429  MEMB      110             0.0000000000
     13601       110  PMPE      H6R             1.1096563629       15.0989258833      -11.8555479928  MEMB      110             0.0000000000
     13602       110  PMPE      H6S            -0.1740823497       15.9343423417      -10.9602431894  MEMB      110             0.0000000000
     13603       110  PMPE      C27             1.1731924821       14.8989873748       -9.7177827702  MEMB      110             0.0000000000
     13604       110  PMPE      H7R             2.2457267773       14.6251842221       -9.7380635095  MEMB      110             0.0000000000
     13605       110  PMPE      H7S             0.6024139776       13.9773994299       -9.7830149221  MEMB      110             0.0000000000
     13606       110  PMPE      C28             0.6618258622       15.5582378375       -8.4613371300  MEMB      110             0.0000000000
     13607       110  PMPE      H8R             0.3390457547       14.7158048490       -7.8214348300  MEMB      110             0.0000000000
     13608       110  PMPE      H8S            -0.2263487227       16.2047205939       -8.5783098642  MEMB      110             0.0000000000
     13609       110  PMPE      C29             1.8284044877       16.2942411512       -7.8860531232  MEMB      110             0.0000000000
     13610       110  PMPE      H9R             2.2035560450       17.1662825705       -8.4276852210  MEMB      110             0.0000000000
     13611       110  PMPE      C217            2.8194633185       15.3154447325       -7.3017351588  MEMB      110             0.0000000000
     13612       110  PMPE      H17R            3.8459122307       15.6604119766       -7.2642755824  MEMB      110             0.0000000000
     13613       110  PMPE      H17S            2.4795826849       14.3145032654       -7.1242456561  MEMB      110             0.0000000000
     13614       110  PMPE      C210            2.0233465686       16.2368151863       -6.4074232251  MEMB      110             0.0000000000
     13615       110  PMPE      H10R            2.7629053160       16.8502032436       -5.9052573166  MEMB      110             0.0000000000
     13616       110  PMPE      C211            0.7204655782       15.9031879115       -5.6971380874  MEMB      110             0.0000000000
     13617       110  PMPE      H11R            0.5056200974       14.8328860110       -5.8396647421  MEMB      110             0.0000000000
     13618       110  PMPE      H11S           -0.0942602144       16.5669407493       -6.0619078174  MEMB      110             0.0000000000
     13619       110  PMPE      C212            0.7846994002       16.1416247616       -4.2216150559  MEMB      110             0.0000000000
     13620       110  PMPE      H12R           -0.1731989753       16.3369165677       -3.6861719543  MEMB      110             0.0000000000
     13621       110  PMPE      H12S            1.6077612296       16.8891650831       -3.9742031835  MEMB      110             0.0000000000
     13622       110  PMPE      C213            1.3872908175       15.0509711308       -3.6044379947  MEMB      110             0.0000000000
     13623       110  PMPE      H13R            2.3215733096       15.1122983870       -4.2386905346  MEMB      110             0.0000000000
     13624       110  PMPE      H13S            0.9414751997       14.0828912866       -3.6929822710  MEMB      110             0.0000000000
     13625       110  PMPE      C214            1.4349999804       15.2956257810       -2.1712763539  MEMB      110             0.0000000000
     13626       110  PMPE      H14R            0.6017178714       15.3888539285       -1.4502229589  MEMB      110             0.0000000000
     13627       110  PMPE      H14S            2.2573907041       16.0341593883       -1.9456015374  MEMB      110             0.0000000000
     13628       110  PMPE      C215            1.8384952477       14.2043285032       -1.4697886379  MEMB      110             0.0000000000
     13629       110  PMPE      H15R            2.0803309757       14.8339319550       -0.4978941018  MEMB      110             0.0000000000
     13630       110  PMPE      H15S            2.6238152299       13.4832531115       -1.8830164924  MEMB      110             0.0000000000
     13631       110  PMPE      C216            1.1331964575       13.1441440291       -1.1747789965  MEMB      110             0.0000000000
     13632       110  PMPE      H16R            1.8308247152       12.6083838584       -0.5345816093  MEMB      110             0.0000000000
     13633       110  PMPE      H16S            0.5268238516       13.5858234132       -0.4140255347  MEMB      110             0.0000000000
     13634       110  PMPE      H16T            0.9550449146       12.4048710973       -1.9712650210  MEMB      110             0.0000000000
     13635       110  PMPE      C33             1.1916985928       11.3168609840      -10.6539887055  MEMB      110             0.0000000000
     13636       110  PMPE      H3X             0.1020479970       11.3350172294      -10.4446836680  MEMB      110             0.0000000000
     13637       110  PMPE      H3Y             1.5890457306       12.3457403020      -10.4690228663  MEMB      110             0.0000000000
     13638       110  PMPE      C34             1.8465786118       10.4935850895       -9.6104931428  MEMB      110             0.0000000000
     13639       110  PMPE      H4X             1.5133509774        9.4267996604       -9.6364042960  MEMB      110             0.0000000000
     13640       110  PMPE      H4Y             1.6462750543       10.8884948713       -8.5884319624  MEMB      110             0.0000000000
     13641       110  PMPE      C35             3.3335705608       10.5757793955       -9.8593418920  MEMB      110             0.0000000000
     13642       110  PMPE      H5X             3.6773038911       10.0088416502      -10.7536238527  MEMB      110             0.0000000000
     13643       110  PMPE      H5Y             3.5606639412       10.0855483557       -8.9268231696  MEMB      110             0.0000000000
     13644       110  PMPE      C36             4.0691280526       11.8947881672       -9.8235609771  MEMB      110             0.0000000000
     13645       110  PMPE      H6X             3.4504111047       12.4848527018       -9.1219698411  MEMB      110             0.0000000000
     13646       110  PMPE      H6Y             4.0032496902       12.2944984373      -10.8585280508  MEMB      110             0.0000000000
     13647       110  PMPE      C37             5.5309546670       11.9382614227       -9.3097601948  MEMB      110             0.0000000000
     13648       110  PMPE      H7X             6.2408177223       11.3860950760       -9.9632273126  MEMB      110             0.0000000000
     13649       110  PMPE      H7Y             5.6941751458       11.5791762030       -8.2841264272  MEMB      110             0.0000000000
     13650       110  PMPE      C38             5.8847206753       13.3672526328       -8.9304914466  MEMB      110             0.0000000000
     13651       110  PMPE      H8X             5.1304906832       13.6667393095       -8.1658925623  MEMB      110             0.0000000000
     13652       110  PMPE      H8Y             5.7754072598       13.9768190942       -9.8469877075  MEMB      110             0.0000000000
     13653       110  PMPE      C39             7.2782015997       13.5949907039       -8.3424821384  MEMB      110             0.0000000000
     13654       110  PMPE      H9X             7.5121801357       14.6643522658       -8.5484544116  MEMB      110             0.0000000000
     13655       110  PMPE      H9Y             8.0124995253       12.9760697373       -8.8961975375  MEMB      110             0.0000000000
     13656       110  PMPE      C310            7.4669158731       13.4354257349       -6.8265615781  MEMB      110             0.0000000000
     13657       110  PMPE      H10X            8.4465135899       13.9233893788       -6.5954546169  MEMB      110             0.0000000000
     13658       110  PMPE      H10Y            7.5223814043       12.3790281631       -6.4894894281  MEMB      110             0.0000000000
     13659       110  PMPE      C311            6.4754747713       14.1620398772       -5.9470590878  MEMB      110             0.0000000000
     13660       110  PMPE      H11X            5.4151540523       13.8272694270       -6.0614086318  MEMB      110             0.0000000000
     13661       110  PMPE      H11Y            6.5354942599       15.2535308261       -6.1753241883  MEMB      110             0.0000000000
     13662       110  PMPE      C312            6.9234912771       13.9787893148       -4.4983933761  MEMB      110             0.0000000000
     13663       110  PMPE      H12X            7.9934278988       14.1193023245       -4.3491378665  MEMB      110             0.0000000000
     13664       110  PMPE      H12Y            6.5318875726       12.9939934196       -4.0911787983  MEMB      110             0.0000000000
     13665       110  PMPE      C313            6.4251122215       15.1392450896       -3.7288419962  MEMB      110             0.0000000000
     13666       110  PMPE      H13X            5.5389244160       14.6484494971       -4.1018257371  MEMB      110             0.0000000000
     13667       110  PMPE      H13Y            6.1189582237       16.1431021445       -4.0494649278  MEMB      110             0.0000000000
     13668       110  PMPE      C314            6.7488813853       15.2001297596       -2.2574938963  MEMB      110             0.0000000000
     13669       110  PMPE      H14X            6.7389703444       14.2289100780       -1.6901882851  MEMB      110             0.0000000000
     13670       110  PMPE      H14Y            6.1634037885       16.0063050972       -1.6807036304  MEMB      110             0.0000000000
     13671       110  PMPE      C315            8.0024294968       15.7720364977       -2.1899202557  MEMB      110             0.0000000000
     13672       110  PMPE      H15X            7.9425317500       16.7230423502       -2.7626299577  MEMB      110             0.0000000000
     13673       110  PMPE      H15Y            8.7144766964       15.0704472935       -2.6275282153  MEMB      110             0.0000000000
     13674       110  PMPE      C316            8.1947615615       15.9446200412       -0.7725699663  MEMB      110             0.0000000000
     13675       110  PMPE      H16X            9.2823167715       16.1521754163       -0.8219292004  MEMB      110             0.0000000000
     13676       110  PMPE      H16Y            8.1328905204       15.1359217763       -0.0431730378  MEMB      110             0.0000000000
     13677       110  PMPE      H16Z            7.5806904497       16.8304192143       -0.4047994922  MEMB      110             0.0000000000
     13678       111  PMPE      N             -15.0838866313       -0.5229205072      -18.8749399256  MEMB      111             0.0000000000
     13679       111  PMPE      HN1           -15.2661547705       -0.9961621183      -17.9624950827  MEMB      111             0.0000000000
     13680       111  PMPE      HN2           -15.9506947492       -0.0568732260      -19.2314804691  MEMB      111             0.0000000000
     13681       111  PMPE      HN3           -14.7993368084       -1.2375796806      -19.5638909113  MEMB      111             0.0000000000
     13682       111  PMPE      C12           -13.9362762047        0.4641244522      -18.7685116833  MEMB      111             0.0000000000
     13683       111  PMPE      H12A          -13.0054330759       -0.1331489023      -18.8617237219  MEMB      111             0.0000000000
     13684       111  PMPE      H12B          -13.9608014881        0.9214016168      -17.7609341616  MEMB      111             0.0000000000
     13685       111  PMPE      C11           -13.9052751385        1.5280507099      -19.8977496397  MEMB      111             0.0000000000
     13686       111  PMPE      H11A          -14.0999713484        1.0463696627      -20.8813772330  MEMB      111             0.0000000000
     13687       111  PMPE      H11B          -12.8493799628        1.8993768666      -19.9640213004  MEMB      111             0.0000000000
     13688       111  PMPE      P             -14.3992626274        3.9274941148      -18.9155692283  MEMB      111             0.0000000000
     13689       111  PMPE      O13           -14.2752318336        5.0676090873      -19.8352145074  MEMB      111             0.0000000000
     13690       111  PMPE      O14           -13.2360886512        3.5421228960      -18.1185658495  MEMB      111             0.0000000000
     13691       111  PMPE      O11           -15.5281388353        4.1557931928      -17.8876616858  MEMB      111             0.0000000000
     13692       111  PMPE      O12           -14.8478376863        2.5991897251      -19.6960657378  MEMB      111             0.0000000000
     13693       111  PMPE      C1            -16.9018165792        3.9552176509      -17.8926017792  MEMB      111             0.0000000000
     13694       111  PMPE      HA            -17.2431840478        3.1823721261      -18.6204002048  MEMB      111             0.0000000000
     13695       111  PMPE      HB            -17.4005955672        4.9211578659      -18.0969132929  MEMB      111             0.0000000000
     13696       111  PMPE      C2            -17.2342964436        3.4710874756      -16.4826062393  MEMB      111             0.0000000000
     13697       111  PMPE      HS            -18.3365265693        3.4321597356      -16.3828921758  MEMB      111             0.0000000000
     13698       111  PMPE      O21           -16.6686045312        4.2879828315      -15.4455117047  MEMB      111             0.0000000000
     13699       111  PMPE      C21           -17.1837864125        5.4678385544      -15.3166587294  MEMB      111             0.0000000000
     13700       111  PMPE      O22           -18.0416659999        5.9957237682      -16.0049781383  MEMB      111             0.0000000000
     13701       111  PMPE      C22           -16.7145769282        5.9591954207      -13.9544042395  MEMB      111             0.0000000000
     13702       111  PMPE      H2R           -15.6281468581        6.0322940805      -13.8266981029  MEMB      111             0.0000000000
     13703       111  PMPE      H2S           -17.1634854730        5.2611706206      -13.1973894329  MEMB      111             0.0000000000
     13704       111  PMPE      C3            -16.6496206677        2.0590848703      -16.3164874071  MEMB      111             0.0000000000
     13705       111  PMPE      HX            -15.5938681028        2.0804993911      -16.6715912387  MEMB      111             0.0000000000
     13706       111  PMPE      HY            -17.2328312153        1.3673653954      -16.9665316599  MEMB      111             0.0000000000
     13707       111  PMPE      O31           -16.7381192649        1.6972314120      -14.9331432497  MEMB      111             0.0000000000
     13708       111  PMPE      C31           -15.7729991859        0.9541086508      -14.4685627536  MEMB      111             0.0000000000
     13709       111  PMPE      O32           -14.8997653950        0.4317900444      -15.1433850775  MEMB      111             0.0000000000
     13710       111  PMPE      C32           -16.0253698657        0.7166152086      -12.9790013262  MEMB      111             0.0000000000
     13711       111  PMPE      H2X           -16.7149388571       -0.1372004750      -12.9237374053  MEMB      111             0.0000000000
     13712       111  PMPE      H2Y           -16.4356230767        1.6505714005      -12.5410342333  MEMB      111             0.0000000000
     13713       111  PMPE      C23           -17.2484131043        7.3012725828      -13.6015645156  MEMB      111             0.0000000000
     13714       111  PMPE      H3R           -18.1389149536        7.4222922078      -14.2210931752  MEMB      111             0.0000000000
     13715       111  PMPE      H3S           -16.5865242508        8.1852304969      -13.7943592356  MEMB      111             0.0000000000
     13716       111  PMPE      C24           -17.7334415633        7.1070158651      -12.1887992150  MEMB      111             0.0000000000
     13717       111  PMPE      H4R           -18.7483254757        6.6611128754      -12.1425619192  MEMB      111             0.0000000000
     13718       111  PMPE      H4S           -18.1552185507        7.9927495214      -11.9538347139  MEMB      111             0.0000000000
     13719       111  PMPE      C25           -16.5688015601        6.9374783302      -11.1579506558  MEMB      111             0.0000000000
     13720       111  PMPE      H5R           -15.8430794045        7.7809964966      -11.2601401797  MEMB      111             0.0000000000
     13721       111  PMPE      H5S           -16.1196236311        5.9800694073      -11.3666460661  MEMB      111             0.0000000000
     13722       111  PMPE      C26           -16.8960298675        6.9795940536       -9.6659860631  MEMB      111             0.0000000000
     13723       111  PMPE      H6R           -17.6518066557        7.5811122713      -10.0428158131  MEMB      111             0.0000000000
     13724       111  PMPE      H6S           -16.5732931911        7.7584673716       -8.9500437438  MEMB      111             0.0000000000
     13725       111  PMPE      C27           -17.5127125982        5.7013713669       -9.1157466817  MEMB      111             0.0000000000
     13726       111  PMPE      H7R           -16.7470153085        5.0281345105       -9.5292422411  MEMB      111             0.0000000000
     13727       111  PMPE      H7S           -18.4660314627        5.4013462520       -9.6179741045  MEMB      111             0.0000000000
     13728       111  PMPE      C28           -17.5226524027        5.5400887399       -7.5760107819  MEMB      111             0.0000000000
     13729       111  PMPE      H8R           -16.5534232744        5.8383255362       -7.1926834127  MEMB      111             0.0000000000
     13730       111  PMPE      H8S           -17.7894795174        4.4604434665       -7.4154461374  MEMB      111             0.0000000000
     13731       111  PMPE      C29           -18.4842440486        6.2902812979       -6.7002196576  MEMB      111             0.0000000000
     13732       111  PMPE      H9R           -19.2411071258        5.5694017804       -6.4013369315  MEMB      111             0.0000000000
     13733       111  PMPE      C217          -18.3450485876        7.8249367491       -6.6932546399  MEMB      111             0.0000000000
     13734       111  PMPE      H17R          -19.1640656652        8.4921027218       -6.8457752840  MEMB      111             0.0000000000
     13735       111  PMPE      H17S          -17.4749907278        8.2227879705       -7.1303025267  MEMB      111             0.0000000000
     13736       111  PMPE      C210          -18.2707186094        7.0715463961       -5.4338487608  MEMB      111             0.0000000000
     13737       111  PMPE      H10R          -19.0085397887        7.5413841424       -4.7075079747  MEMB      111             0.0000000000
     13738       111  PMPE      C211          -16.9642995044        7.0481721210       -5.0153574088  MEMB      111             0.0000000000
     13739       111  PMPE      H11R          -17.2057897113        7.6415853292       -4.1295440424  MEMB      111             0.0000000000
     13740       111  PMPE      H11S          -16.3040888314        7.4687105774       -5.8041541038  MEMB      111             0.0000000000
     13741       111  PMPE      C212          -16.4855010331        5.8828821613       -4.2985220048  MEMB      111             0.0000000000
     13742       111  PMPE      H12R          -16.2888723049        5.1285734481       -5.0447954804  MEMB      111             0.0000000000
     13743       111  PMPE      H12S          -17.3466920924        5.6289502271       -3.5988614836  MEMB      111             0.0000000000
     13744       111  PMPE      C213          -15.1110544429        6.2598902387       -3.6865598892  MEMB      111             0.0000000000
     13745       111  PMPE      H13R          -14.5389845345        7.1032465270       -4.1506610119  MEMB      111             0.0000000000
     13746       111  PMPE      H13S          -14.6695315281        5.4289841963       -3.1799563045  MEMB      111             0.0000000000
     13747       111  PMPE      C214          -15.3309877815        6.8119907681       -2.4015583615  MEMB      111             0.0000000000
     13748       111  PMPE      H14R          -16.2008884951        6.1974128413       -2.1911527634  MEMB      111             0.0000000000
     13749       111  PMPE      H14S          -15.9058941622        7.5291280421       -2.9414516505  MEMB      111             0.0000000000
     13750       111  PMPE      C215          -14.3639563800        7.3781822705       -1.2472606574  MEMB      111             0.0000000000
     13751       111  PMPE      H15R          -14.7918292543        8.0362370176       -0.4195373484  MEMB      111             0.0000000000
     13752       111  PMPE      H15S          -13.6477657710        8.1130429063       -1.6486353123  MEMB      111             0.0000000000
     13753       111  PMPE      C216          -13.7983240833        6.2898437153       -0.4030688714  MEMB      111             0.0000000000
     13754       111  PMPE      H16R          -13.1072083197        5.8111429744       -1.1057371296  MEMB      111             0.0000000000
     13755       111  PMPE      H16S          -13.3998366651        6.6736193945        0.5444385232  MEMB      111             0.0000000000
     13756       111  PMPE      H16T          -14.5381045284        5.5592298554       -0.0366650301  MEMB      111             0.0000000000
     13757       111  PMPE      C33           -14.8311829333        0.1354004275      -12.2245799322  MEMB      111             0.0000000000
     13758       111  PMPE      H3X           -14.0029884074        0.8560997461      -12.3465233394  MEMB      111             0.0000000000
     13759       111  PMPE      H3Y           -14.6034742472       -0.8353392458      -12.7253321806  MEMB      111             0.0000000000
     13760       111  PMPE      C34           -14.9980122696       -0.1996756635      -10.7350518853  MEMB      111             0.0000000000
     13761       111  PMPE      H4X           -14.0890363630       -0.7367404136      -10.4104215655  MEMB      111             0.0000000000
     13762       111  PMPE      H4Y           -15.7413861916       -0.9735537664      -10.5603737429  MEMB      111             0.0000000000
     13763       111  PMPE      C35           -15.3109357380        0.9689490697       -9.8036718576  MEMB      111             0.0000000000
     13764       111  PMPE      H5X           -15.2066309014        0.6079275448       -8.7438397890  MEMB      111             0.0000000000
     13765       111  PMPE      H5Y           -16.3183392137        1.3570126201      -10.0261165035  MEMB      111             0.0000000000
     13766       111  PMPE      C36           -14.6420258058        2.2875116464      -10.0594404526  MEMB      111             0.0000000000
     13767       111  PMPE      H6X           -14.9150292089        2.7769817722      -10.9924399659  MEMB      111             0.0000000000
     13768       111  PMPE      H6Y           -13.7005883701        2.0261030233      -10.4890010067  MEMB      111             0.0000000000
     13769       111  PMPE      C37           -14.6538174107        3.2192741360       -8.8300943886  MEMB      111             0.0000000000
     13770       111  PMPE      H7X           -14.4581853803        2.6836900115       -7.8737392971  MEMB      111             0.0000000000
     13771       111  PMPE      H7Y           -15.6952185940        3.5587043651       -8.7456231397  MEMB      111             0.0000000000
     13772       111  PMPE      C38           -13.6583437755        4.3830320978       -9.0011407635  MEMB      111             0.0000000000
     13773       111  PMPE      H8X           -13.8211577163        4.8132376753      -10.0072671693  MEMB      111             0.0000000000
     13774       111  PMPE      H8Y           -12.6172457023        4.0090448188       -8.9863504393  MEMB      111             0.0000000000
     13775       111  PMPE      C39           -13.7653866509        5.5589786605       -8.0263195410  MEMB      111             0.0000000000
     13776       111  PMPE      H9X           -14.6839339280        6.1259901767       -8.2734705982  MEMB      111             0.0000000000
     13777       111  PMPE      H9Y           -12.8977472353        6.2381576500       -8.1784455408  MEMB      111             0.0000000000
     13778       111  PMPE      C310          -13.7963982460        5.1660421499       -6.5662407535  MEMB      111             0.0000000000
     13779       111  PMPE      H10X          -14.5287513530        4.3416485069       -6.4322772132  MEMB      111             0.0000000000
     13780       111  PMPE      H10Y          -14.1643984183        6.0096823900       -5.9483627246  MEMB      111             0.0000000000
     13781       111  PMPE      C311          -12.4237741543        4.7885451646       -6.0534144269  MEMB      111             0.0000000000
     13782       111  PMPE      H11X          -11.6492786738        5.5839062275       -6.1333345163  MEMB      111             0.0000000000
     13783       111  PMPE      H11Y          -12.0200222575        3.9077377784       -6.5948403430  MEMB      111             0.0000000000
     13784       111  PMPE      C312          -12.5182193182        4.4979255623       -4.5862706396  MEMB      111             0.0000000000
     13785       111  PMPE      H12X          -12.5914313983        5.3945679878       -3.9536582030  MEMB      111             0.0000000000
     13786       111  PMPE      H12Y          -11.4690681703        4.1066088570       -4.4405092745  MEMB      111             0.0000000000
     13787       111  PMPE      C313          -13.6834178305        3.5481277108       -4.1629110448  MEMB      111             0.0000000000
     13788       111  PMPE      H13X          -13.6860802987        2.7990562504       -4.9615723571  MEMB      111             0.0000000000
     13789       111  PMPE      H13Y          -14.7007802615        3.8132393182       -4.4234554545  MEMB      111             0.0000000000
     13790       111  PMPE      C314          -13.7916115240        3.1921092421       -2.6426721767  MEMB      111             0.0000000000
     13791       111  PMPE      H14X          -14.2175206781        4.0452518295       -2.1388830615  MEMB      111             0.0000000000
     13792       111  PMPE      H14Y          -13.0947439454        3.4965622159       -1.9094917373  MEMB      111             0.0000000000
     13793       111  PMPE      C315          -14.3659230427        1.8933911985       -2.0896214197  MEMB      111             0.0000000000
     13794       111  PMPE      H15X          -13.8799826737        1.4308339203       -1.1784240493  MEMB      111             0.0000000000
     13795       111  PMPE      H15Y          -14.3815877740        1.1138140221       -2.8622216645  MEMB      111             0.0000000000
     13796       111  PMPE      C316          -15.7005055420        2.3107588230       -1.6184545416  MEMB      111             0.0000000000
     13797       111  PMPE      H16X          -15.5310815133        3.0367855006       -0.7855084026  MEMB      111             0.0000000000
     13798       111  PMPE      H16Y          -16.2877138509        1.4350530651       -1.2931849934  MEMB      111             0.0000000000
     13799       111  PMPE      H16Z          -16.1231533169        2.8177653770       -2.5126434069  MEMB      111             0.0000000000
     13800       112  QMPE      N              12.1014267189       -7.1151236330      -20.4516113269  MEMB      112             0.0000000000
     13801       112  QMPE      HN1            12.2653831723       -6.1954922623      -19.9821207573  MEMB      112             0.0000000000
     13802       112  QMPE      HN2            12.0555928731       -6.9874613715      -21.4770999748  MEMB      112             0.0000000000
     13803       112  QMPE      HN3            11.2059878606       -7.5189423883      -20.1152793032  MEMB      112             0.0000000000
     13804       112  QMPE      C12            13.3018883398       -7.9876679971      -20.1674266401  MEMB      112             0.0000000000
     13805       112  QMPE      H12A           14.1170085423       -7.6246914848      -20.8297430279  MEMB      112             0.0000000000
     13806       112  QMPE      H12B           13.0368342205       -9.0326955572      -20.4230580285  MEMB      112             0.0000000000
     13807       112  QMPE      C11            13.7002338052       -8.0034113640      -18.6827199501  MEMB      112             0.0000000000
     13808       112  QMPE      H11A           14.6458512982       -8.5735387962      -18.5244782814  MEMB      112             0.0000000000
     13809       112  QMPE      H11B           12.8914793978       -8.5643419263      -18.1580535315  MEMB      112             0.0000000000
     13810       112  QMPE      P              14.8513877140       -5.6288291445      -18.5883602784  MEMB      112             0.0000000000
     13811       112  QMPE      O13            13.9690406026       -4.6116596100      -19.2209060265  MEMB      112             0.0000000000
     13812       112  QMPE      O14            15.8589453230       -6.3172527347      -19.4350921967  MEMB      112             0.0000000000
     13813       112  QMPE      O11            15.5036718724       -5.1321117245      -17.2614407382  MEMB      112             0.0000000000
     13814       112  QMPE      O12            13.7976184222       -6.7103964731      -18.1088163712  MEMB      112             0.0000000000
     13815       112  QMPE      C1             16.4796288956       -5.8157117132      -16.4835798244  MEMB      112             0.0000000000
     13816       112  QMPE      HA             16.8048788875       -5.0876112235      -15.7048459144  MEMB      112             0.0000000000
     13817       112  QMPE      HB             17.3805596959       -6.0527676986      -17.0835770481  MEMB      112             0.0000000000
     13818       112  QMPE      C2             15.9315792346       -7.0478114812      -15.6945447453  MEMB      112             0.0000000000
     13819       112  QMPE      HS             15.8316177582       -7.9206993601      -16.3820553654  MEMB      112             0.0000000000
     13820       112  QMPE      O21            14.6704248452       -6.6390288089      -15.1320592790  MEMB      112             0.0000000000
     13821       112  QMPE      C21            13.6790931267       -7.4925236563      -15.2248311484  MEMB      112             0.0000000000
     13822       112  QMPE      O22            13.7869492391       -8.6840844350      -15.4807909351  MEMB      112             0.0000000000
     13823       112  QMPE      C22            12.3515311180       -6.7630595970      -14.9750444520  MEMB      112             0.0000000000
     13824       112  QMPE      H2R            11.9118978524       -6.4089524359      -15.9259139059  MEMB      112             0.0000000000
     13825       112  QMPE      H2S            12.5434400067       -5.8689375509      -14.3468026458  MEMB      112             0.0000000000
     13826       112  QMPE      C3             16.9404400498       -7.4708973694      -14.5930367180  MEMB      112             0.0000000000
     13827       112  QMPE      HX             17.9445611930       -7.4780728403      -15.0712056770  MEMB      112             0.0000000000
     13828       112  QMPE      HY             16.7565758359       -8.4971892713      -14.2171746317  MEMB      112             0.0000000000
     13829       112  QMPE      O31            16.9572820676       -6.5066837565      -13.5427908136  MEMB      112             0.0000000000
     13830       112  QMPE      C31            16.0986715354       -6.7211096326      -12.5523526603  MEMB      112             0.0000000000
     13831       112  QMPE      O32            15.4932365856       -7.7481893372      -12.3101665852  MEMB      112             0.0000000000
     13832       112  QMPE      C32            16.1434813508       -5.5335195420      -11.6599634172  MEMB      112             0.0000000000
     13833       112  QMPE      H2X            16.9377656208       -5.7145309980      -10.9457229106  MEMB      112             0.0000000000
     13834       112  QMPE      H2Y            16.3360783081       -4.5861033800      -12.2090866335  MEMB      112             0.0000000000
     13835       112  QMPE      C23            11.3570129719       -7.6994858908      -14.2842138506  MEMB      112             0.0000000000
     13836       112  QMPE      H3R            11.1527153296       -8.6009323310      -14.9034318223  MEMB      112             0.0000000000
     13837       112  QMPE      H3S            10.3918657694       -7.1713678145      -14.0967895131  MEMB      112             0.0000000000
     13838       112  QMPE      C24            11.8911068407       -8.1025187548      -12.9281862800  MEMB      112             0.0000000000
     13839       112  QMPE      H4R            12.2050574475       -7.2042675936      -12.3558068856  MEMB      112             0.0000000000
     13840       112  QMPE      H4S            12.7712572510       -8.7845585730      -13.0154479552  MEMB      112             0.0000000000
     13841       112  QMPE      C25            10.8286509051       -8.7578951826      -12.1182697083  MEMB      112             0.0000000000
     13842       112  QMPE      H5R            10.2572639901       -9.4996853805      -12.7225124670  MEMB      112             0.0000000000
     13843       112  QMPE      H5S            10.0663492717       -8.0558265001      -11.7127109413  MEMB      112             0.0000000000
     13844       112  QMPE      C26            11.4952530806       -9.4359657885      -10.9524229914  MEMB      112             0.0000000000
     13845       112  QMPE      H6R            12.0625278891      -10.3511160044      -11.2452166168  MEMB      112             0.0000000000
     13846       112  QMPE      H6S            10.5117124713       -9.6425398471      -10.5495195937  MEMB      112             0.0000000000
     13847       112  QMPE      C27            12.0325977824       -8.6537030058       -9.7538164058  MEMB      112             0.0000000000
     13848       112  QMPE      H7R            11.3107153651       -7.8373602655       -9.5395054621  MEMB      112             0.0000000000
     13849       112  QMPE      H7S            13.0224640468       -8.2970368975      -10.0838314983  MEMB      112             0.0000000000
     13850       112  QMPE      C28            12.2587653254       -9.3497941394       -8.3938527878  MEMB      112             0.0000000000
     13851       112  QMPE      H8R            12.8963832669       -8.6716812866       -7.8012671911  MEMB      112             0.0000000000
     13852       112  QMPE      H8S            12.8188662728      -10.3144883261       -8.5141715878  MEMB      112             0.0000000000
     13853       112  QMPE      C29            11.0514798782       -9.4196333028       -7.4836258684  MEMB      112             0.0000000000
     13854       112  QMPE      H9R             9.9972003890       -9.4441684805       -7.7238793987  MEMB      112             0.0000000000
     13855       112  QMPE      C217           10.6511779199       -8.5085526043       -6.3033613218  MEMB      112             0.0000000000
     13856       112  QMPE      H17R           11.1203411413       -7.6444906730       -6.6494642493  MEMB      112             0.0000000000
     13857       112  QMPE      H17S            9.5412428331       -8.6362085097       -6.1280506514  MEMB      112             0.0000000000
     13858       112  QMPE      C210           11.3614051217       -9.8092904813       -6.1605575951  MEMB      112             0.0000000000
     13859       112  QMPE      H10R           10.5308198379      -10.3045243515       -5.9307411344  MEMB      112             0.0000000000
     13860       112  QMPE      C211           12.6474267592      -10.0373152846       -5.4008502554  MEMB      112             0.0000000000
     13861       112  QMPE      H11R           13.2243205406       -9.1112246026       -5.5192293998  MEMB      112             0.0000000000
     13862       112  QMPE      H11S           12.2358845741      -10.1360041763       -4.3660215407  MEMB      112             0.0000000000
     13863       112  QMPE      C212           13.6068286823      -11.2469431617       -5.6913210995  MEMB      112             0.0000000000
     13864       112  QMPE      H12R           13.7980423574      -11.3692390023       -6.7573981853  MEMB      112             0.0000000000
     13865       112  QMPE      H12S           13.4102753877      -12.3165456890       -5.4506843357  MEMB      112             0.0000000000
     13866       112  QMPE      C213           14.6958657491      -11.2030293105       -4.6676217136  MEMB      112             0.0000000000
     13867       112  QMPE      H13R           15.2068395786      -10.2462959858       -4.9060684939  MEMB      112             0.0000000000
     13868       112  QMPE      H13S           15.3697444802      -12.0656941657       -4.8425658268  MEMB      112             0.0000000000
     13869       112  QMPE      C214           14.1590630824      -11.3151433093       -3.2083817766  MEMB      112             0.0000000000
     13870       112  QMPE      H14R           13.6321243026      -12.2319868224       -2.9681501182  MEMB      112             0.0000000000
     13871       112  QMPE      H14S           13.5340675152      -10.4178102300       -2.9487394178  MEMB      112             0.0000000000
     13872       112  QMPE      C215           15.2686525480      -11.4186521388       -2.2215390509  MEMB      112             0.0000000000
     13873       112  QMPE      H15R           16.0189975350      -12.2218234265       -2.2811049683  MEMB      112             0.0000000000
     13874       112  QMPE      H15S           14.9419684900      -11.1744860706       -1.1673426807  MEMB      112             0.0000000000
     13875       112  QMPE      C216           16.1003123637      -10.3852850868       -2.6636743370  MEMB      112             0.0000000000
     13876       112  QMPE      H16R           16.8513050875      -10.3898335300       -3.4705374130  MEMB      112             0.0000000000
     13877       112  QMPE      H16S           16.6309746525      -10.1706312236       -1.7062060085  MEMB      112             0.0000000000
     13878       112  QMPE      H16T           15.3855752839       -9.5674593146       -3.0093574307  MEMB      112             0.0000000000
     13879       112  QMPE      C33            14.9767516345       -5.4774584479      -10.7439458056  MEMB      112             0.0000000000
     13880       112  QMPE      H3X            14.6159469313       -6.4356759378      -10.3375820260  MEMB      112             0.0000000000
     13881       112  QMPE      H3Y            14.2016981011       -5.0759708301      -11.4318780091  MEMB      112             0.0000000000
     13882       112  QMPE      C34            15.4049343089       -4.7120885420       -9.5016597992  MEMB      112             0.0000000000
     13883       112  QMPE      H4X            15.7854074090       -3.7409603494       -9.8355269479  MEMB      112             0.0000000000
     13884       112  QMPE      H4Y            16.3237698562       -4.8841317346       -8.9478240577  MEMB      112             0.0000000000
     13885       112  QMPE      C35            14.3127679133       -4.5911359816       -8.4808214111  MEMB      112             0.0000000000
     13886       112  QMPE      H5X            13.3097151535       -4.5221632344       -8.8387292199  MEMB      112             0.0000000000
     13887       112  QMPE      H5Y            14.6745176228       -3.8149155911       -7.8537524241  MEMB      112             0.0000000000
     13888       112  QMPE      C36            13.6978362513       -5.5359964131       -7.5554895745  MEMB      112             0.0000000000
     13889       112  QMPE      H6X            14.5922909347       -5.6501558533       -6.9203921582  MEMB      112             0.0000000000
     13890       112  QMPE      H6Y            13.3933355944       -6.3551128927       -8.2403136010  MEMB      112             0.0000000000
     13891       112  QMPE      C37            12.4986675019       -4.9489659524       -6.7406147662  MEMB      112             0.0000000000
     13892       112  QMPE      H7X            11.9311287456       -4.0268734513       -6.9426091186  MEMB      112             0.0000000000
     13893       112  QMPE      H7Y            11.6846423659       -5.6752453048       -6.8591821650  MEMB      112             0.0000000000
     13894       112  QMPE      C38            13.0253172699       -4.8401815987       -5.3294838836  MEMB      112             0.0000000000
     13895       112  QMPE      H8X            13.3514627966       -5.8756947953       -5.1261464602  MEMB      112             0.0000000000
     13896       112  QMPE      H8Y            13.9023852969       -4.1491218707       -5.2984829296  MEMB      112             0.0000000000
     13897       112  QMPE      C39            12.0584222594       -4.3915280156       -4.2675465875  MEMB      112             0.0000000000
     13898       112  QMPE      H9X            11.0744812680       -4.9082334848       -4.3015835961  MEMB      112             0.0000000000
     13899       112  QMPE      H9Y            11.8959974795       -3.3332713903       -4.4341929839  MEMB      112             0.0000000000
     13900       112  QMPE      C310           12.6908147584       -4.3284231727       -2.8827506242  MEMB      112             0.0000000000
     13901       112  QMPE      H10X           11.9666119383       -3.8431069747       -2.2798576371  MEMB      112             0.0000000000
     13902       112  QMPE      H10Y           13.5103445044       -3.5974089799       -2.8030987322  MEMB      112             0.0000000000
     13903       112  QMPE      C311           12.9948328771       -5.6537173372       -2.2150687370  MEMB      112             0.0000000000
     13904       112  QMPE      H11X           13.1371522748       -5.4670234414       -1.1271383052  MEMB      112             0.0000000000
     13905       112  QMPE      H11Y           13.9319627920       -6.0420805002       -2.6575141036  MEMB      112             0.0000000000
     13906       112  QMPE      C312           11.9061631719       -6.6878866315       -2.4831895119  MEMB      112             0.0000000000
     13907       112  QMPE      H12X           12.0080835985       -6.9721422312       -3.5546133745  MEMB      112             0.0000000000
     13908       112  QMPE      H12Y           10.9164255572       -6.2164580523       -2.3199797503  MEMB      112             0.0000000000
     13909       112  QMPE      C313           11.9906120413       -7.9619169455       -1.6447826161  MEMB      112             0.0000000000
     13910       112  QMPE      H13X           13.0125359339       -8.3867951496       -1.7151797972  MEMB      112             0.0000000000
     13911       112  QMPE      H13Y           11.7844357341       -7.7080008930       -0.5798609271  MEMB      112             0.0000000000
     13912       112  QMPE      C314           11.0118844084       -9.0275395171       -2.1476249186  MEMB      112             0.0000000000
     13913       112  QMPE      H14X           11.3722444237      -10.0344199098       -1.8612020938  MEMB      112             0.0000000000
     13914       112  QMPE      H14Y           10.9029560969       -8.9581927518       -3.2546373868  MEMB      112             0.0000000000
     13915       112  QMPE      C315            9.6614477180       -8.8436741856       -1.5292811173  MEMB      112             0.0000000000
     13916       112  QMPE      H15X            8.8598742128       -9.4848013613       -1.9614264201  MEMB      112             0.0000000000
     13917       112  QMPE      H15Y            9.7213838714       -8.9927615994       -0.4362502383  MEMB      112             0.0000000000
     13918       112  QMPE      H15Z            9.4438164694       -7.7792004067       -1.7146711267  MEMB      112             0.0000000000
     13919       113  PMPG      C13           -12.7841163759        9.6549279868      -17.0731413994  MEMB      113             0.0000000000
     13920       113  PMPG      H13A          -11.6983505334        9.4303299740      -17.0379480913  MEMB      113             0.0000000000
     13921       113  PMPG      H13B          -12.9671918466       10.6042200313      -16.5265279537  MEMB      113             0.0000000000
     13922       113  PMPG      OC3           -13.4948042047        8.5900288665      -16.4389195277  MEMB      113             0.0000000000
     13923       113  PMPG      HO3           -13.0484915567        7.7798532160      -16.7201393498  MEMB      113             0.0000000000
     13924       113  PMPG      C12           -13.1543125687        9.8909831374      -18.5586901237  MEMB      113             0.0000000000
     13925       113  PMPG      H12A          -14.2359200989       10.1401220410      -18.6349608356  MEMB      113             0.0000000000
     13926       113  PMPG      OC2           -12.9237256182        8.7246646063      -19.3485883548  MEMB      113             0.0000000000
     13927       113  PMPG      HO2           -12.9075578115        9.0327575193      -20.2590965901  MEMB      113             0.0000000000
     13928       113  PMPG      C11           -12.3407842299       11.0844354845      -19.1276987439  MEMB      113             0.0000000000
     13929       113  PMPG      H11A          -12.6454836945       12.0132650927      -18.6017502326  MEMB      113             0.0000000000
     13930       113  PMPG      H11B          -12.6162409898       11.1615047145      -20.2059615346  MEMB      113             0.0000000000
     13931       113  PMPG      P              -9.8996940505       11.5149627827      -19.9431403421  MEMB      113             0.0000000000
     13932       113  PMPG      O13           -10.0893492406       10.8819112460      -21.2631011360  MEMB      113             0.0000000000
     13933       113  PMPG      O14            -8.5430971576       11.5263435740      -19.3721055562  MEMB      113             0.0000000000
     13934       113  PMPG      O11           -10.4752745034       13.0070311565      -20.0345539519  MEMB      113             0.0000000000
     13935       113  PMPG      O12           -10.9356331285       10.9122535699      -18.9155663057  MEMB      113             0.0000000000
     13936       113  PMPG      C1             -9.8023627408       14.0412488599      -19.3211147470  MEMB      113             0.0000000000
     13937       113  PMPG      HA             -9.7324286235       14.7954529583      -20.0841116395  MEMB      113             0.0000000000
     13938       113  PMPG      HB             -8.7049541345       13.9003314617      -19.1612617978  MEMB      113             0.0000000000
     13939       113  PMPG      C2            -10.5157142049       14.5037299298      -17.9822564508  MEMB      113             0.0000000000
     13940       113  PMPG      HS            -10.0081838422       15.4182310205      -17.5743945174  MEMB      113             0.0000000000
     13941       113  PMPG      O21           -10.4485158523       13.4783162183      -17.0119333333  MEMB      113             0.0000000000
     13942       113  PMPG      C21            -9.2618312272       13.4532185964      -16.5003109030  MEMB      113             0.0000000000
     13943       113  PMPG      O22            -8.3108414375       14.1729266603      -16.7585398586  MEMB      113             0.0000000000
     13944       113  PMPG      C22            -9.3304046377       12.5384894612      -15.3640214833  MEMB      113             0.0000000000
     13945       113  PMPG      H2R            -9.3990325159       11.5222488165      -15.8124376403  MEMB      113             0.0000000000
     13946       113  PMPG      H2S           -10.2463868560       12.6353463053      -14.7513642545  MEMB      113             0.0000000000
     13947       113  PMPG      C3            -12.0088701631       14.9302895454      -18.1181565187  MEMB      113             0.0000000000
     13948       113  PMPG      HX            -12.4993678181       14.2361554650      -18.8315174973  MEMB      113             0.0000000000
     13949       113  PMPG      HY            -12.1313854284       15.9072960138      -18.5838117946  MEMB      113             0.0000000000
     13950       113  PMPG      O31           -12.6281406767       15.1065771300      -16.8312305986  MEMB      113             0.0000000000
     13951       113  PMPG      C31           -13.6205224846       14.2517643743      -16.5915526094  MEMB      113             0.0000000000
     13952       113  PMPG      O32           -14.0718357045       13.4819772137      -17.4260570200  MEMB      113             0.0000000000
     13953       113  PMPG      C32           -13.9241069134       14.2017274222      -15.1025186725  MEMB      113             0.0000000000
     13954       113  PMPG      H2X           -14.9965193242       14.4277532785      -14.9679399518  MEMB      113             0.0000000000
     13955       113  PMPG      H2Y           -13.3021484397       14.8846119559      -14.4877079312  MEMB      113             0.0000000000
     13956       113  PMPG      C23            -8.0775956584       12.9709950656      -14.5855708838  MEMB      113             0.0000000000
     13957       113  PMPG      H3R            -7.9864283031       14.0452277560      -14.3447891283  MEMB      113             0.0000000000
     13958       113  PMPG      H3S            -7.1410301893       12.6593305553      -15.1061208574  MEMB      113             0.0000000000
     13959       113  PMPG      C24            -8.1710706626       12.4531913580      -13.2054276840  MEMB      113             0.0000000000
     13960       113  PMPG      H4R            -8.8463193792       11.5737588545      -13.3476218357  MEMB      113             0.0000000000
     13961       113  PMPG      H4S            -8.8484411923       13.0685186641      -12.6109248697  MEMB      113             0.0000000000
     13962       113  PMPG      C25            -6.7731240688       12.2264267267      -12.5477893930  MEMB      113             0.0000000000
     13963       113  PMPG      H5R            -5.9568708738       12.8129599396      -12.9648399047  MEMB      113             0.0000000000
     13964       113  PMPG      H5S            -6.3559112112       11.1897009540      -12.6796336517  MEMB      113             0.0000000000
     13965       113  PMPG      C26            -6.4903547854       12.4148454291      -11.0688496474  MEMB      113             0.0000000000
     13966       113  PMPG      H6R            -5.4392553728       12.0495870622      -11.0697914127  MEMB      113             0.0000000000
     13967       113  PMPG      H6S            -7.0514230633       11.8488093470      -10.3068192460  MEMB      113             0.0000000000
     13968       113  PMPG      C27            -7.1062598144       13.3059235751      -10.0856021869  MEMB      113             0.0000000000
     13969       113  PMPG      H7R            -8.2078314139       13.3157204140      -10.3472684368  MEMB      113             0.0000000000
     13970       113  PMPG      H7S            -6.3251122892       13.9198869107      -10.5227089746  MEMB      113             0.0000000000
     13971       113  PMPG      C28            -6.8012836122       12.9893177414       -8.6124920963  MEMB      113             0.0000000000
     13972       113  PMPG      H8R            -6.7069643319       13.9125944990       -8.0522435152  MEMB      113             0.0000000000
     13973       113  PMPG      H8S            -5.9464746140       12.3433491063       -8.3666462181  MEMB      113             0.0000000000
     13974       113  PMPG      C29            -7.9128425409       12.5689516115       -7.8517558397  MEMB      113             0.0000000000
     13975       113  PMPG      H9R            -8.9360213744       12.3953806920       -8.3756406429  MEMB      113             0.0000000000
     13976       113  PMPG      C217           -7.6641256982       11.3892815944       -7.4148027783  MEMB      113             0.0000000000
     13977       113  PMPG      H17R           -8.5417067654       10.8154855654       -7.6927157391  MEMB      113             0.0000000000
     13978       113  PMPG      H17S           -6.6896397331       11.0014283978       -7.3365889703  MEMB      113             0.0000000000
     13979       113  PMPG      C210           -7.4853735349       12.1322639132       -6.3621136711  MEMB      113             0.0000000000
     13980       113  PMPG      H10R           -7.9904802247       11.5528362459       -5.6291190730  MEMB      113             0.0000000000
     13981       113  PMPG      C211           -6.3403526088       11.7578698779       -5.4420331183  MEMB      113             0.0000000000
     13982       113  PMPG      H11R           -5.5105594777       11.3064413539       -5.9899754143  MEMB      113             0.0000000000
     13983       113  PMPG      H11S           -6.1476343438       12.7998076764       -5.1506844486  MEMB      113             0.0000000000
     13984       113  PMPG      C212           -6.7967824977       10.9427025714       -4.1584749110  MEMB      113             0.0000000000
     13985       113  PMPG      H12R           -6.7784468879        9.8648694875       -4.3381909769  MEMB      113             0.0000000000
     13986       113  PMPG      H12S           -7.7648629805       11.1709245848       -3.6717052558  MEMB      113             0.0000000000
     13987       113  PMPG      C213           -5.8926395874       11.1576675129       -3.0902184943  MEMB      113             0.0000000000
     13988       113  PMPG      H13R           -5.7760815592       12.2595767739       -2.9927661177  MEMB      113             0.0000000000
     13989       113  PMPG      H13S           -5.0591256920       10.7501274950       -3.6491891412  MEMB      113             0.0000000000
     13990       113  PMPG      C214           -6.0866243974       10.2654273190       -1.8585852146  MEMB      113             0.0000000000
     13991       113  PMPG      H14R           -5.1719275629       10.0220912236       -1.2939257236  MEMB      113             0.0000000000
     13992       113  PMPG      H14S           -6.3155529495        9.2115823894       -2.0014113351  MEMB      113             0.0000000000
     13993       113  PMPG      C215           -6.9416686223       10.9063375896       -0.8688657265  MEMB      113             0.0000000000
     13994       113  PMPG      H15R           -7.9690969213       10.8842448412       -1.2453009247  MEMB      113             0.0000000000
     13995       113  PMPG      H15S           -6.6207667856       11.9778722673       -0.8954232100  MEMB      113             0.0000000000
     13996       113  PMPG      C216           -6.7356633557       10.0710001970        0.4048729853  MEMB      113             0.0000000000
     13997       113  PMPG      H16R           -7.2000288384       10.5432377922        1.2832995016  MEMB      113             0.0000000000
     13998       113  PMPG      H16S           -5.6586812393        9.9566232614        0.6959394867  MEMB      113             0.0000000000
     13999       113  PMPG      H16T           -7.1619031085        9.0708017185        0.2108605814  MEMB      113             0.0000000000
     14000       113  PMPG      C33           -13.5236450475       12.8010789270      -14.6381799232  MEMB      113             0.0000000000
     14001       113  PMPG      H3X           -12.4304630933       12.7180364774      -14.8445277355  MEMB      113             0.0000000000
     14002       113  PMPG      H3Y           -14.0412139950       11.9889558202      -15.1978756443  MEMB      113             0.0000000000
     14003       113  PMPG      C34           -13.6660864815       12.5904104904      -13.1428576052  MEMB      113             0.0000000000
     14004       113  PMPG      H4X           -14.7409485506       12.6048363239      -12.8542529811  MEMB      113             0.0000000000
     14005       113  PMPG      H4Y           -13.1359154297       13.4051435450      -12.5902875839  MEMB      113             0.0000000000
     14006       113  PMPG      C35           -13.0123126985       11.2564906825      -12.7863984905  MEMB      113             0.0000000000
     14007       113  PMPG      H5X           -11.9673306763       11.2810987224      -13.1739660416  MEMB      113             0.0000000000
     14008       113  PMPG      H5Y           -13.5266007074       10.4152670355      -13.2979601760  MEMB      113             0.0000000000
     14009       113  PMPG      C36           -12.9762946166       11.0547429509      -11.2803581306  MEMB      113             0.0000000000
     14010       113  PMPG      H6X           -13.8454521072       10.4575817046      -10.9339986108  MEMB      113             0.0000000000
     14011       113  PMPG      H6Y           -13.0497795217       12.0705192067      -10.8217203090  MEMB      113             0.0000000000
     14012       113  PMPG      C37           -11.6531809587       10.4500659986      -10.8325331300  MEMB      113             0.0000000000
     14013       113  PMPG      H7X           -10.8548603641       10.9520234520      -11.4137943343  MEMB      113             0.0000000000
     14014       113  PMPG      H7Y           -11.6020247788        9.3549459115      -11.0265306828  MEMB      113             0.0000000000
     14015       113  PMPG      C38           -11.3976822506       10.7019071226       -9.3630071529  MEMB      113             0.0000000000
     14016       113  PMPG      H8X           -11.3573621163       11.7951862102       -9.1487569821  MEMB      113             0.0000000000
     14017       113  PMPG      H8Y           -10.3914637338       10.2969615354       -9.1004066714  MEMB      113             0.0000000000
     14018       113  PMPG      C39           -12.4634161330        9.9599423510       -8.5529406766  MEMB      113             0.0000000000
     14019       113  PMPG      H9X           -12.2041837985        8.8780373588       -8.6753655877  MEMB      113             0.0000000000
     14020       113  PMPG      H9Y           -13.5146214211       10.1397149202       -8.8152392339  MEMB      113             0.0000000000
     14021       113  PMPG      C310          -12.3898499019       10.3099395203       -7.1040208556  MEMB      113             0.0000000000
     14022       113  PMPG      H10X          -12.1964236011       11.4033898956       -6.9304876287  MEMB      113             0.0000000000
     14023       113  PMPG      H10Y          -11.5067096324        9.6343324182       -6.9828743108  MEMB      113             0.0000000000
     14024       113  PMPG      C311          -13.1662348652        9.5719304519       -6.0620292790  MEMB      113             0.0000000000
     14025       113  PMPG      H11X          -12.9701268321        8.4993292630       -6.3010303774  MEMB      113             0.0000000000
     14026       113  PMPG      H11Y          -14.2081823611        9.8543313566       -6.2806766457  MEMB      113             0.0000000000
     14027       113  PMPG      C312          -12.7804086387        9.8697697179       -4.5842722141  MEMB      113             0.0000000000
     14028       113  PMPG      H12X          -13.5609176969        9.3606816227       -3.9837072913  MEMB      113             0.0000000000
     14029       113  PMPG      H12Y          -12.9001634474       10.9637595337       -4.4134256445  MEMB      113             0.0000000000
     14030       113  PMPG      C313          -11.4549326225        9.2489492060       -4.0468474372  MEMB      113             0.0000000000
     14031       113  PMPG      H13X          -10.5356448569        9.5022785110       -4.4993447650  MEMB      113             0.0000000000
     14032       113  PMPG      H13Y          -11.3764697511        8.1878885788       -4.2933941571  MEMB      113             0.0000000000
     14033       113  PMPG      C314          -10.9119998154        9.6415296578       -2.6731407806  MEMB      113             0.0000000000
     14034       113  PMPG      H14X           -9.9004111348        9.1517524167       -2.6004835300  MEMB      113             0.0000000000
     14035       113  PMPG      H14Y          -11.6092980862        9.1827879747       -1.9603684696  MEMB      113             0.0000000000
     14036       113  PMPG      C315          -10.7162916721       11.1438859054       -2.4013463968  MEMB      113             0.0000000000
     14037       113  PMPG      H15X          -11.4967427048       11.7605751143       -2.8925299394  MEMB      113             0.0000000000
     14038       113  PMPG      H15Y           -9.7403672597       11.4533778194       -2.8160992586  MEMB      113             0.0000000000
     14039       113  PMPG      C316          -10.7357221380       11.4297700732       -0.9055378501  MEMB      113             0.0000000000
     14040       113  PMPG      H16X          -10.7057877496       12.5123811064       -0.6597537357  MEMB      113             0.0000000000
     14041       113  PMPG      H16Y           -9.8596297971       10.9272843364       -0.4450290053  MEMB      113             0.0000000000
     14042       113  PMPG      H16Z          -11.6678752590       11.0076700799       -0.4773458404  MEMB      113             0.0000000000
     14043       114  POPE      N             -10.6051132178       -8.6416582486      -18.8713816919  MEMB      114             0.0000000000
     14044       114  POPE      HN1           -10.5261974508       -9.2073210605      -18.0014670425  MEMB      114             0.0000000000
     14045       114  POPE      HN2            -9.6454332962       -8.4071563099      -19.1859188929  MEMB      114             0.0000000000
     14046       114  POPE      HN3           -11.1593241182       -7.7937602255      -18.6402084167  MEMB      114             0.0000000000
     14047       114  POPE      C12           -11.3725667639       -9.4688886301      -19.8791726450  MEMB      114             0.0000000000
     14048       114  POPE      H12A          -11.5463640113       -8.8570536651      -20.7823464928  MEMB      114             0.0000000000
     14049       114  POPE      H12B          -12.3549600648       -9.6656341647      -19.4058152287  MEMB      114             0.0000000000
     14050       114  POPE      C11           -10.6898915285      -10.8172732201      -20.1673780081  MEMB      114             0.0000000000
     14051       114  POPE      H11A           -9.6456951496      -10.6541220763      -20.4974277857  MEMB      114             0.0000000000
     14052       114  POPE      H11B          -11.1686002672      -11.3608967120      -21.0214222933  MEMB      114             0.0000000000
     14053       114  POPE      P             -11.9778914186      -12.5390289932      -18.6766783076  MEMB      114             0.0000000000
     14054       114  POPE      O13           -11.7884264975      -13.8644215517      -19.2881874907  MEMB      114             0.0000000000
     14055       114  POPE      O14           -13.1769429336      -11.7837811405      -19.0901885085  MEMB      114             0.0000000000
     14056       114  POPE      O11           -11.9048647147      -12.5469320972      -17.0941038483  MEMB      114             0.0000000000
     14057       114  POPE      O12           -10.6977655662      -11.5984993583      -18.9740552665  MEMB      114             0.0000000000
     14058       114  POPE      C1            -10.6606346235      -12.8878292668      -16.4677240956  MEMB      114             0.0000000000
     14059       114  POPE      HA             -9.8124498096      -12.9312726273      -17.1936616426  MEMB      114             0.0000000000
     14060       114  POPE      HB            -10.7289409354      -13.9143271675      -16.0497311784  MEMB      114             0.0000000000
     14061       114  POPE      C2            -10.2490591085      -11.8555298401      -15.3708527653  MEMB      114             0.0000000000
     14062       114  POPE      HS             -9.3456990517      -12.2251648859      -14.8406874154  MEMB      114             0.0000000000
     14063       114  POPE      O21           -11.2899297455      -11.5969426778      -14.4008732472  MEMB      114             0.0000000000
     14064       114  POPE      C21           -11.5523043012      -12.6129700376      -13.5890238735  MEMB      114             0.0000000000
     14065       114  POPE      O22           -11.0639596757      -13.7235551491      -13.6502801798  MEMB      114             0.0000000000
     14066       114  POPE      C22           -12.4558495352      -12.1535134436      -12.4402098314  MEMB      114             0.0000000000
     14067       114  POPE      H2R           -13.4148095589      -11.8225206042      -12.8829041707  MEMB      114             0.0000000000
     14068       114  POPE      H2S           -11.9694801801      -11.2748799656      -11.9711736022  MEMB      114             0.0000000000
     14069       114  POPE      C3             -9.8273611109      -10.5235669620      -16.0689310855  MEMB      114             0.0000000000
     14070       114  POPE      HX            -10.7122044175      -10.1328541162      -16.6235710241  MEMB      114             0.0000000000
     14071       114  POPE      HY             -9.0476948263      -10.7766566478      -16.8218255968  MEMB      114             0.0000000000
     14072       114  POPE      O31            -9.2428878417       -9.5548564061      -15.1720660610  MEMB      114             0.0000000000
     14073       114  POPE      C31           -10.1366532263       -8.7535657107      -14.6109035514  MEMB      114             0.0000000000
     14074       114  POPE      O32           -11.3339711481       -8.7766608297      -14.8331518745  MEMB      114             0.0000000000
     14075       114  POPE      C32            -9.4684153862       -7.7296886323      -13.7282147215  MEMB      114             0.0000000000
     14076       114  POPE      H2X            -9.7707133231       -6.8009126542      -14.2429469830  MEMB      114             0.0000000000
     14077       114  POPE      H2Y            -8.3699358510       -7.7978564438      -13.6911423210  MEMB      114             0.0000000000
     14078       114  POPE      C23           -12.7283269325      -13.2596087780      -11.3801172062  MEMB      114             0.0000000000
     14079       114  POPE      H3R           -11.8008048547      -13.5165060595      -10.8168378123  MEMB      114             0.0000000000
     14080       114  POPE      H3S           -13.0738417189      -14.1917184819      -11.8825978960  MEMB      114             0.0000000000
     14081       114  POPE      C24           -13.8382129087      -12.8583461446      -10.4049925636  MEMB      114             0.0000000000
     14082       114  POPE      H4R           -14.0991210031      -13.7364820247       -9.7705213374  MEMB      114             0.0000000000
     14083       114  POPE      H4S           -14.7555609513      -12.6008835332      -10.9819626938  MEMB      114             0.0000000000
     14084       114  POPE      C25           -13.4534982703      -11.6673660885       -9.5210936565  MEMB      114             0.0000000000
     14085       114  POPE      H5R           -13.0376027632      -10.8453942976      -10.1445846839  MEMB      114             0.0000000000
     14086       114  POPE      H5S           -12.6365121975      -11.9771579530       -8.8336545161  MEMB      114             0.0000000000
     14087       114  POPE      C26           -14.6503073406      -11.2204850141       -8.6744555761  MEMB      114             0.0000000000
     14088       114  POPE      H6R           -14.9857733877      -12.1238855912       -8.1114773221  MEMB      114             0.0000000000
     14089       114  POPE      H6S           -15.4964123245      -10.8725742449       -9.3041955078  MEMB      114             0.0000000000
     14090       114  POPE      C27           -14.3411476570      -10.1352852881       -7.6432036183  MEMB      114             0.0000000000
     14091       114  POPE      H7R           -13.3488784830      -10.3296855410       -7.1900859249  MEMB      114             0.0000000000
     14092       114  POPE      H7S           -15.1363203147      -10.1556204513       -6.8627420844  MEMB      114             0.0000000000
     14093       114  POPE      C28           -14.2923482182       -8.7326432624       -8.2000867954  MEMB      114             0.0000000000
     14094       114  POPE      H8R           -15.0393281178       -8.6356549502       -9.0345365361  MEMB      114             0.0000000000
     14095       114  POPE      H8S           -13.3221285660       -8.6148831752       -8.7376597978  MEMB      114             0.0000000000
     14096       114  POPE      C29           -14.5033977985       -7.7059272267       -7.0788220416  MEMB      114             0.0000000000
     14097       114  POPE      H91           -15.5453190458       -7.3451188615       -6.9957065636  MEMB      114             0.0000000000
     14098       114  POPE      C210          -13.5598545170       -6.8774661427       -6.5459389088  MEMB      114             0.0000000000
     14099       114  POPE      H101          -14.0096592636       -5.9139314484       -6.2196388562  MEMB      114             0.0000000000
     14100       114  POPE      C211          -12.0322366280       -6.7356167516       -6.8792067737  MEMB      114             0.0000000000
     14101       114  POPE      H11R          -11.5381144617       -6.0408003412       -7.6303464952  MEMB      114             0.0000000000
     14102       114  POPE      H11S          -11.5918483108       -7.6374605816       -7.3068562065  MEMB      114             0.0000000000
     14103       114  POPE      C212          -11.4299154954       -5.9651881605       -5.7609949677  MEMB      114             0.0000000000
     14104       114  POPE      H12R          -11.9755018487       -5.0262330296       -5.4635773041  MEMB      114             0.0000000000
     14105       114  POPE      H12S          -10.3792476649       -5.6600712219       -5.9917820219  MEMB      114             0.0000000000
     14106       114  POPE      C213          -11.4012726265       -6.9892541025       -4.7104290420  MEMB      114             0.0000000000
     14107       114  POPE      H13R          -10.7651647621       -7.8305982241       -5.0708887551  MEMB      114             0.0000000000
     14108       114  POPE      H13S          -12.4112738902       -7.4044967170       -4.4856262347  MEMB      114             0.0000000000
     14109       114  POPE      C214          -10.7754367186       -6.2798747272       -3.5999763569  MEMB      114             0.0000000000
     14110       114  POPE      H14R          -11.2731297882       -5.3152402220       -3.3351247689  MEMB      114             0.0000000000
     14111       114  POPE      H14S           -9.6887904816       -6.1710964296       -3.8080537648  MEMB      114             0.0000000000
     14112       114  POPE      C215          -10.9181875676       -7.0580585594       -2.4094313277  MEMB      114             0.0000000000
     14113       114  POPE      H15R          -10.3137483668       -7.9958369969       -2.5533093761  MEMB      114             0.0000000000
     14114       114  POPE      H15S          -11.9884981327       -7.3103968221       -2.2661872187  MEMB      114             0.0000000000
     14115       114  POPE      C216          -10.5344753459       -6.1165941465       -1.2987670823  MEMB      114             0.0000000000
     14116       114  POPE      H16R          -10.1575149195       -6.5338180486       -0.3727701637  MEMB      114             0.0000000000
     14117       114  POPE      H16S          -11.3628141763       -5.6967349569       -0.7320272781  MEMB      114             0.0000000000
     14118       114  POPE      C217           -9.1609580848       -5.7053508612       -1.3759079377  MEMB      114             0.0000000000
     14119       114  POPE      H17R           -8.9759942201       -4.9420849802       -0.6344694113  MEMB      114             0.0000000000
     14120       114  POPE      H17S           -8.8692101219       -5.2257619014       -2.3041567273  MEMB      114             0.0000000000
     14121       114  POPE      C218           -8.2979720528       -6.8658225926       -1.0226101627  MEMB      114             0.0000000000
     14122       114  POPE      H18R           -7.5079035640       -6.1502977847       -1.1924970204  MEMB      114             0.0000000000
     14123       114  POPE      H18S           -8.0910466698       -7.7406623660       -1.6566599345  MEMB      114             0.0000000000
     14124       114  POPE      H18T           -8.1580998143       -7.2129600850        0.0392635142  MEMB      114             0.0000000000
     14125       114  POPE      C33            -9.9906596539       -7.8281286979      -12.2953099372  MEMB      114             0.0000000000
     14126       114  POPE      H3X           -11.0659770716       -7.9030673968      -12.3226212333  MEMB      114             0.0000000000
     14127       114  POPE      H3Y            -9.7523225120       -6.9372545722      -11.6740608394  MEMB      114             0.0000000000
     14128       114  POPE      C34            -9.6045151012       -9.1182262900      -11.5987161524  MEMB      114             0.0000000000
     14129       114  POPE      H4X            -8.5155166767       -9.2411979833      -11.5942599534  MEMB      114             0.0000000000
     14130       114  POPE      H4Y           -10.0201129754       -9.9877604302      -12.1561992304  MEMB      114             0.0000000000
     14131       114  POPE      C35           -10.1126058134       -9.0723091519      -10.1673993286  MEMB      114             0.0000000000
     14132       114  POPE      H5X           -11.2063730998       -8.8767451981      -10.1785775128  MEMB      114             0.0000000000
     14133       114  POPE      H5Y            -9.6181936225       -8.2282012235       -9.6316278200  MEMB      114             0.0000000000
     14134       114  POPE      C36            -9.9214805220      -10.3847660372       -9.4279757151  MEMB      114             0.0000000000
     14135       114  POPE      H6X            -8.8584411776      -10.7023380862       -9.4365731440  MEMB      114             0.0000000000
     14136       114  POPE      H6Y           -10.4957892022      -11.1606427836       -9.9730963445  MEMB      114             0.0000000000
     14137       114  POPE      C37           -10.3976214184      -10.2409965634       -7.9777558886  MEMB      114             0.0000000000
     14138       114  POPE      H7X           -11.4681487194       -9.9824197024       -7.9548077004  MEMB      114             0.0000000000
     14139       114  POPE      H7Y            -9.7905483781       -9.4202437626       -7.5338535078  MEMB      114             0.0000000000
     14140       114  POPE      C38           -10.1846268666      -11.4948921475       -7.1458620854  MEMB      114             0.0000000000
     14141       114  POPE      H8X            -9.1270043483      -11.3680198588       -6.8228664706  MEMB      114             0.0000000000
     14142       114  POPE      H8Y           -10.3838768755      -12.3631940175       -7.8205981660  MEMB      114             0.0000000000
     14143       114  POPE      C39           -10.8382039652      -11.6327503429       -5.7878544067  MEMB      114             0.0000000000
     14144       114  POPE      H9X           -11.9087847405      -11.8282629098       -5.9439768474  MEMB      114             0.0000000000
     14145       114  POPE      H9Y           -10.5862362538      -10.6748441502       -5.2935636161  MEMB      114             0.0000000000
     14146       114  POPE      C310          -10.3497796900      -12.7045775718       -4.8110989142  MEMB      114             0.0000000000
     14147       114  POPE      H10X          -10.1176538528      -13.5841463673       -5.4626347455  MEMB      114             0.0000000000
     14148       114  POPE      H10Y          -11.1498611402      -13.0682206209       -4.1586487915  MEMB      114             0.0000000000
     14149       114  POPE      C311           -9.2613343551      -12.1295472732       -3.8258822346  MEMB      114             0.0000000000
     14150       114  POPE      H11X           -9.1929757796      -11.0439820710       -3.7211949045  MEMB      114             0.0000000000
     14151       114  POPE      H11Y           -8.5217242363      -12.0851828062       -4.5397422741  MEMB      114             0.0000000000
     14152       114  POPE      C312           -8.6185335088      -12.9447518628       -2.6420560164  MEMB      114             0.0000000000
     14153       114  POPE      H12X           -8.2042939227      -13.9690970137       -2.7652755359  MEMB      114             0.0000000000
     14154       114  POPE      H12Y           -9.4010147686      -13.0619901375       -1.9080524895  MEMB      114             0.0000000000
     14155       114  POPE      C313           -7.3248505175      -12.4402142311       -2.0443707788  MEMB      114             0.0000000000
     14156       114  POPE      H13X           -6.5287849810      -12.4676433160       -2.6982041765  MEMB      114             0.0000000000
     14157       114  POPE      H13Y           -6.9319227891      -13.1866069370       -1.3242553832  MEMB      114             0.0000000000
     14158       114  POPE      C314           -7.2929446457      -10.9770947937       -1.8212217849  MEMB      114             0.0000000000
     14159       114  POPE      H14X           -7.5031068183      -10.3987544902       -2.7504113587  MEMB      114             0.0000000000
     14160       114  POPE      H14Y           -6.3005372679      -10.6492860830       -1.4414889359  MEMB      114             0.0000000000
     14161       114  POPE      C315           -8.3296258512      -10.8214550890       -0.8153208982  MEMB      114             0.0000000000
     14162       114  POPE      H15X           -9.3610814304      -10.8939559532       -1.2395566090  MEMB      114             0.0000000000
     14163       114  POPE      H15Y           -8.1390641899       -9.8278650304       -0.3664742356  MEMB      114             0.0000000000
     14164       114  POPE      C316           -8.1713835437      -11.8294573558        0.2850834055  MEMB      114             0.0000000000
     14165       114  POPE      H16X           -7.1761491455      -11.9155636781        0.7546061209  MEMB      114             0.0000000000
     14166       114  POPE      H16Y           -8.6646915603      -12.8355276394        0.2122001634  MEMB      114             0.0000000000
     14167       114  POPE      H16Z           -8.7359437397      -11.1838518614        0.9407574066  MEMB      114             0.0000000000
     14168       115  PMPE      N              -0.3026964498      -15.8873560668      -20.0290082195  MEMB      115             0.0000000000
     14169       115  PMPE      HN1            -1.1504879187      -16.4380436405      -20.2570962088  MEMB      115             0.0000000000
     14170       115  PMPE      HN2            -0.1781742581      -15.8449634077      -18.9978256846  MEMB      115             0.0000000000
     14171       115  PMPE      HN3            -0.3223102930      -14.9250805000      -20.4203021020  MEMB      115             0.0000000000
     14172       115  PMPE      C12             0.9192000855      -16.5816708881      -20.5445588461  MEMB      115             0.0000000000
     14173       115  PMPE      H12A            0.7345414455      -16.8564206166      -21.6063861829  MEMB      115             0.0000000000
     14174       115  PMPE      H12B            1.0535118564      -17.4964256127      -19.9348599131  MEMB      115             0.0000000000
     14175       115  PMPE      C11             2.1512650684      -15.6621177180      -20.4342422772  MEMB      115             0.0000000000
     14176       115  PMPE      H11A            1.9695935334      -14.7665658093      -21.0734885916  MEMB      115             0.0000000000
     14177       115  PMPE      H11B            3.0241691658      -16.2062003773      -20.8456450628  MEMB      115             0.0000000000
     14178       115  PMPE      P               3.3039968352      -16.3287677157      -18.2098574852  MEMB      115             0.0000000000
     14179       115  PMPE      O13             4.5988719374      -16.6928093515      -18.8350244743  MEMB      115             0.0000000000
     14180       115  PMPE      O14             2.3230222236      -17.3669559613      -17.8525334070  MEMB      115             0.0000000000
     14181       115  PMPE      O11             3.5910950976      -15.4592445796      -16.9574846487  MEMB      115             0.0000000000
     14182       115  PMPE      O12             2.4708878139      -15.2653601742      -19.1048660806  MEMB      115             0.0000000000
     14183       115  PMPE      C1              2.6182356159      -14.4655011316      -16.6956680116  MEMB      115             0.0000000000
     14184       115  PMPE      HA              1.5679976357      -14.8112942610      -16.8557311314  MEMB      115             0.0000000000
     14185       115  PMPE      HB              2.8130888663      -13.5776408680      -17.3382696715  MEMB      115             0.0000000000
     14186       115  PMPE      C2              2.7535469692      -14.1635775674      -15.2360921308  MEMB      115             0.0000000000
     14187       115  PMPE      HS              3.7996973587      -13.7656628462      -15.0770571249  MEMB      115             0.0000000000
     14188       115  PMPE      O21             2.3384254901      -15.2423823913      -14.3939382954  MEMB      115             0.0000000000
     14189       115  PMPE      C21             3.3140380793      -15.8271408016      -13.7863170483  MEMB      115             0.0000000000
     14190       115  PMPE      O22             4.4934764081      -15.7672326333      -14.0737158177  MEMB      115             0.0000000000
     14191       115  PMPE      C22             2.7440477684      -16.4425871981      -12.5004561960  MEMB      115             0.0000000000
     14192       115  PMPE      H2R             1.7030398521      -16.7585346996      -12.7064605078  MEMB      115             0.0000000000
     14193       115  PMPE      H2S             2.7078529504      -15.6571819343      -11.7137967822  MEMB      115             0.0000000000
     14194       115  PMPE      C3              1.9350723420      -13.0919267040      -14.7471746577  MEMB      115             0.0000000000
     14195       115  PMPE      HX              0.8522152804      -13.1525294952      -15.0486720665  MEMB      115             0.0000000000
     14196       115  PMPE      HY              2.1714926129      -12.1915205848      -15.2837124817  MEMB      115             0.0000000000
     14197       115  PMPE      O31             2.1810531141      -13.0804596774      -13.2948534694  MEMB      115             0.0000000000
     14198       115  PMPE      C31             3.3763010013      -12.7251554892      -12.7634175336  MEMB      115             0.0000000000
     14199       115  PMPE      O32             4.3328342579      -12.2854194272      -13.3643743320  MEMB      115             0.0000000000
     14200       115  PMPE      C32             3.2569644532      -12.6862417828      -11.2439493768  MEMB      115             0.0000000000
     14201       115  PMPE      H2X             2.8824880236      -13.6459156563      -10.9260119924  MEMB      115             0.0000000000
     14202       115  PMPE      H2Y             2.4365142928      -12.1469264153      -10.7324203650  MEMB      115             0.0000000000
     14203       115  PMPE      C23             3.5840657813      -17.6386503075      -11.9988203258  MEMB      115             0.0000000000
     14204       115  PMPE      H3R             4.6349377426      -17.2934137888      -11.8392664188  MEMB      115             0.0000000000
     14205       115  PMPE      H3S             3.6031368665      -18.4386570578      -12.7757581248  MEMB      115             0.0000000000
     14206       115  PMPE      C24             3.0675305004      -18.1754674285      -10.6523610313  MEMB      115             0.0000000000
     14207       115  PMPE      H4R             2.0624520649      -18.6278358406      -10.7208186905  MEMB      115             0.0000000000
     14208       115  PMPE      H4S             3.0059484842      -17.2859693887       -9.9914466054  MEMB      115             0.0000000000
     14209       115  PMPE      C25             3.9587755349      -19.2315529360       -9.9932497230  MEMB      115             0.0000000000
     14210       115  PMPE      H5R             4.8849555169      -19.1789733617      -10.5571043632  MEMB      115             0.0000000000
     14211       115  PMPE      H5S             3.6165805165      -20.2618996174      -10.1753089264  MEMB      115             0.0000000000
     14212       115  PMPE      C26             4.1109067782      -19.0534219978       -8.4772672452  MEMB      115             0.0000000000
     14213       115  PMPE      H6R             4.6752620512      -19.9080008969       -8.0263790759  MEMB      115             0.0000000000
     14214       115  PMPE      H6S             3.1221660844      -19.0169975603       -7.9962268606  MEMB      115             0.0000000000
     14215       115  PMPE      C27             4.8663581406      -17.7758229838       -8.1755704782  MEMB      115             0.0000000000
     14216       115  PMPE      H7R             4.6840348630      -16.9430765015       -8.8699454871  MEMB      115             0.0000000000
     14217       115  PMPE      H7S             5.7736839850      -18.1353152872       -8.6144741892  MEMB      115             0.0000000000
     14218       115  PMPE      C28             4.8999467083      -17.3587163787       -6.6860902272  MEMB      115             0.0000000000
     14219       115  PMPE      H8R             5.3501923777      -18.1482511235       -6.0463159927  MEMB      115             0.0000000000
     14220       115  PMPE      H8S             3.8391806760      -17.2666134480       -6.3855747647  MEMB      115             0.0000000000
     14221       115  PMPE      C29             5.5869417173      -15.9997344501       -6.4343140710  MEMB      115             0.0000000000
     14222       115  PMPE      H9R             5.6250207764      -15.2826910145       -7.2654598306  MEMB      115             0.0000000000
     14223       115  PMPE      C217            6.8921722660      -15.9619567185       -5.6466306642  MEMB      115             0.0000000000
     14224       115  PMPE      H17R            7.5685271302      -15.2053487284       -6.0174131657  MEMB      115             0.0000000000
     14225       115  PMPE      H17S            7.1541684881      -16.9413106247       -5.3472053946  MEMB      115             0.0000000000
     14226       115  PMPE      C210            5.6165238185      -15.4964342574       -5.0023902623  MEMB      115             0.0000000000
     14227       115  PMPE      H10R            5.5216398955      -14.4151608582       -4.8631281620  MEMB      115             0.0000000000
     14228       115  PMPE      C211            5.0662494221      -16.4166311365       -3.9223865137  MEMB      115             0.0000000000
     14229       115  PMPE      H11R            5.3740287656      -17.4594728440       -4.0476378905  MEMB      115             0.0000000000
     14230       115  PMPE      H11S            3.9659138727      -16.5124192985       -4.0146497465  MEMB      115             0.0000000000
     14231       115  PMPE      C212            5.3822721460      -15.9575934987       -2.5083776895  MEMB      115             0.0000000000
     14232       115  PMPE      H12R            4.7530516001      -15.0595726706       -2.2768503054  MEMB      115             0.0000000000
     14233       115  PMPE      H12S            6.4166887295      -15.7463312844       -2.1685167476  MEMB      115             0.0000000000
     14234       115  PMPE      C213            4.8882550737      -17.0275917369       -1.5955305810  MEMB      115             0.0000000000
     14235       115  PMPE      H13R            3.8939785593      -17.4604002392       -1.8766669896  MEMB      115             0.0000000000
     14236       115  PMPE      H13S            5.0748115401      -16.5113296062       -0.6541589831  MEMB      115             0.0000000000
     14237       115  PMPE      C214            5.6260804665      -18.0899309804       -0.9838691987  MEMB      115             0.0000000000
     14238       115  PMPE      H14R            5.6316019463      -18.4676753121       -2.0105199050  MEMB      115             0.0000000000
     14239       115  PMPE      H14S            5.0947307853      -18.8938061822       -0.4470867714  MEMB      115             0.0000000000
     14240       115  PMPE      C215            6.8300665429      -17.7681362144       -0.0842308730  MEMB      115             0.0000000000
     14241       115  PMPE      H15R            7.6854947984      -17.2129585666       -0.4836500019  MEMB      115             0.0000000000
     14242       115  PMPE      H15S            7.2751971160      -18.7477021699        0.2336613962  MEMB      115             0.0000000000
     14243       115  PMPE      C216            6.4458987006      -17.0093427811        1.1303658486  MEMB      115             0.0000000000
     14244       115  PMPE      H16R            6.1807340329      -15.9674656628        0.9658394625  MEMB      115             0.0000000000
     14245       115  PMPE      H16S            5.6283054054      -17.5787999088        1.6279770383  MEMB      115             0.0000000000
     14246       115  PMPE      H16T            7.3907553243      -16.9106565349        1.6620558552  MEMB      115             0.0000000000
     14247       115  PMPE      C33             4.4634822783      -11.9650315350      -10.6562994730  MEMB      115             0.0000000000
     14248       115  PMPE      H3X             4.4197284485      -10.8329417150      -10.6987937448  MEMB      115             0.0000000000
     14249       115  PMPE      H3Y             5.3794234291      -12.0947258114      -11.2450161874  MEMB      115             0.0000000000
     14250       115  PMPE      C34             4.5034294782      -12.6307577383       -9.2850850953  MEMB      115             0.0000000000
     14251       115  PMPE      H4X             5.2053473177      -12.0573803145       -8.6208756486  MEMB      115             0.0000000000
     14252       115  PMPE      H4Y             4.7340368095      -13.6868749021       -9.4253944315  MEMB      115             0.0000000000
     14253       115  PMPE      C35             3.1459737662      -12.9563892473       -8.5737783136  MEMB      115             0.0000000000
     14254       115  PMPE      H5X             2.1052075618      -12.7783994811       -8.9211676968  MEMB      115             0.0000000000
     14255       115  PMPE      H5Y             3.2821788401      -11.9982420482       -8.5287087429  MEMB      115             0.0000000000
     14256       115  PMPE      C36             3.2553824539      -13.3691710346       -7.1329552340  MEMB      115             0.0000000000
     14257       115  PMPE      H6X             2.5075817855      -13.2623368626       -6.3626010848  MEMB      115             0.0000000000
     14258       115  PMPE      H6Y             4.0783777401      -12.9245587780       -6.5578348696  MEMB      115             0.0000000000
     14259       115  PMPE      C37             2.9022442929      -14.7701962657       -7.2849378729  MEMB      115             0.0000000000
     14260       115  PMPE      H7X             3.2912147060      -15.2103998858       -6.3557991638  MEMB      115             0.0000000000
     14261       115  PMPE      H7Y             3.4171712318      -15.1127760076       -8.2090147723  MEMB      115             0.0000000000
     14262       115  PMPE      C38             1.3858500942      -14.9337395505       -7.4238419503  MEMB      115             0.0000000000
     14263       115  PMPE      H8X             0.8798125545      -14.2556525779       -8.1396909402  MEMB      115             0.0000000000
     14264       115  PMPE      H8Y             0.9123406174      -14.7043923240       -6.4520031408  MEMB      115             0.0000000000
     14265       115  PMPE      C39             1.1643778301      -16.3265075704       -7.9251611734  MEMB      115             0.0000000000
     14266       115  PMPE      H9X             1.8748616281      -16.9728689436       -7.3414090919  MEMB      115             0.0000000000
     14267       115  PMPE      H9Y             1.4332836932      -16.4337315185       -8.9761984533  MEMB      115             0.0000000000
     14268       115  PMPE      C310           -0.2470760077      -16.7807973619       -7.8238865603  MEMB      115             0.0000000000
     14269       115  PMPE      H10X           -0.5081720738      -17.5689545195       -8.5644491639  MEMB      115             0.0000000000
     14270       115  PMPE      H10Y           -1.0695131766      -16.0254625905       -7.7658089984  MEMB      115             0.0000000000
     14271       115  PMPE      C311           -0.1127250824      -17.4501834734       -6.5506537248  MEMB      115             0.0000000000
     14272       115  PMPE      H11X            0.7544796427      -18.1264430692       -6.4194898618  MEMB      115             0.0000000000
     14273       115  PMPE      H11Y           -0.7190193674      -18.3270569638       -6.6760399307  MEMB      115             0.0000000000
     14274       115  PMPE      C312           -0.3707435311      -16.4241537265       -5.4124348116  MEMB      115             0.0000000000
     14275       115  PMPE      H12X           -1.4071987741      -15.9574201167       -5.2409732428  MEMB      115             0.0000000000
     14276       115  PMPE      H12Y            0.4765881030      -15.8162020787       -5.0876629684  MEMB      115             0.0000000000
     14277       115  PMPE      C313           -0.0880905353      -17.1213864099       -4.2132127359  MEMB      115             0.0000000000
     14278       115  PMPE      H13X            0.6956631951      -17.8964754510       -4.1373294983  MEMB      115             0.0000000000
     14279       115  PMPE      H13Y           -0.8742013063      -17.6049135265       -4.7270246194  MEMB      115             0.0000000000
     14280       115  PMPE      C314           -0.6921925406      -16.5845644007       -3.0007321777  MEMB      115             0.0000000000
     14281       115  PMPE      H14X           -1.1326858006      -17.4285624767       -2.4728082584  MEMB      115             0.0000000000
     14282       115  PMPE      H14Y           -1.6416853148      -16.2005138091       -2.8262814993  MEMB      115             0.0000000000
     14283       115  PMPE      C315            0.2624494295      -16.0518007337       -2.1589638792  MEMB      115             0.0000000000
     14284       115  PMPE      H15X            0.5846682007      -15.0193387881       -2.3216887879  MEMB      115             0.0000000000
     14285       115  PMPE      H15Y            1.1596562021      -16.7264257302       -2.2451565662  MEMB      115             0.0000000000
     14286       115  PMPE      C316           -0.5769889779      -16.2331133740       -0.9767220895  MEMB      115             0.0000000000
     14287       115  PMPE      H16X           -0.7976609845      -17.1832986718       -0.4774152628  MEMB      115             0.0000000000
     14288       115  PMPE      H16Y           -1.1535073048      -15.7726441922       -0.2506981004  MEMB      115             0.0000000000
     14289       115  PMPE      H16Z            0.3594174059      -15.8243435166       -0.6157349737  MEMB      115             0.0000000000
     14290       116  POPE      N              19.5556305505        2.6697983434      -18.5914650142  MEMB      116             0.0000000000
     14291       116  POPE      HN1            19.5685794848        2.3775643643      -17.5992462143  MEMB      116             0.0000000000
     14292       116  POPE      HN2            19.4567372731        1.8181812792      -19.1957057155  MEMB      116             0.0000000000
     14293       116  POPE      HN3            20.4300681499        3.1865606088      -18.8154910965  MEMB      116             0.0000000000
     14294       116  POPE      C12            18.3530467248        3.5607257454      -18.7512136839  MEMB      116             0.0000000000
     14295       116  POPE      H12A           18.3828048898        3.9977791799      -19.7651837016  MEMB      116             0.0000000000
     14296       116  POPE      H12B           18.4360209267        4.3739069163      -17.9994209231  MEMB      116             0.0000000000
     14297       116  POPE      C11            17.0660446439        2.7608379189      -18.5206097540  MEMB      116             0.0000000000
     14298       116  POPE      H11A           16.1871196251        3.4503385304      -18.5942997442  MEMB      116             0.0000000000
     14299       116  POPE      H11B           17.0644507977        2.3785607646      -17.4753891233  MEMB      116             0.0000000000
     14300       116  POPE      P              15.7416073235        0.6760959442      -19.2707234547  MEMB      116             0.0000000000
     14301       116  POPE      O13            15.9106871620       -0.4661638690      -20.1846767899  MEMB      116             0.0000000000
     14302       116  POPE      O14            14.4975736289        1.4659067857      -19.4216676679  MEMB      116             0.0000000000
     14303       116  POPE      O11            15.9253740449        0.1522419220      -17.7713430582  MEMB      116             0.0000000000
     14304       116  POPE      O12            16.9892340611        1.6775267116      -19.4558517931  MEMB      116             0.0000000000
     14305       116  POPE      C1             17.1851008972       -0.3553423288      -17.2770608934  MEMB      116             0.0000000000
     14306       116  POPE      HA             17.7430326627        0.4809921385      -16.8020064277  MEMB      116             0.0000000000
     14307       116  POPE      HB             17.7927488943       -0.8568496665      -18.0619415098  MEMB      116             0.0000000000
     14308       116  POPE      C2             17.1228683363       -1.4046281416      -16.1324157009  MEMB      116             0.0000000000
     14309       116  POPE      HS             16.8085141839       -2.3896952889      -16.5527052611  MEMB      116             0.0000000000
     14310       116  POPE      O21            16.1838234287       -0.9272557689      -15.1982252427  MEMB      116             0.0000000000
     14311       116  POPE      C21            15.7323925648       -1.8000114907      -14.3845914891  MEMB      116             0.0000000000
     14312       116  POPE      O22            16.0469233275       -2.9816071480      -14.2740140937  MEMB      116             0.0000000000
     14313       116  POPE      C22            14.7033800912       -0.9992279332      -13.6550663864  MEMB      116             0.0000000000
     14314       116  POPE      H2R            13.7660012693       -0.8747171867      -14.2271768392  MEMB      116             0.0000000000
     14315       116  POPE      H2S            15.1026184206       -0.0363410580      -13.2718043977  MEMB      116             0.0000000000
     14316       116  POPE      C3             18.5251951012       -1.5596096870      -15.4688752107  MEMB      116             0.0000000000
     14317       116  POPE      HX             19.2217503481       -1.7960010134      -16.2997540247  MEMB      116             0.0000000000
     14318       116  POPE      HY             18.5465438828       -2.4245583400      -14.7648023837  MEMB      116             0.0000000000
     14319       116  POPE      O31            18.9971915766       -0.3215351948      -14.8935081960  MEMB      116             0.0000000000
     14320       116  POPE      C31            18.8660919739       -0.1954963129      -13.5743179925  MEMB      116             0.0000000000
     14321       116  POPE      O32            18.3672036943       -1.0101802748      -12.8237322075  MEMB      116             0.0000000000
     14322       116  POPE      C32            19.5516794246        1.0914588234      -13.1279232925  MEMB      116             0.0000000000
     14323       116  POPE      H2X            19.0869882035        1.9517214200      -13.6447170945  MEMB      116             0.0000000000
     14324       116  POPE      H2Y            20.6105500449        1.0267960191      -13.4574386177  MEMB      116             0.0000000000
     14325       116  POPE      C23            14.3254334231       -1.8019135691      -12.5285025400  MEMB      116             0.0000000000
     14326       116  POPE      H3R            13.9364036354       -2.8165679528      -12.8316460036  MEMB      116             0.0000000000
     14327       116  POPE      H3S            13.4557298892       -1.2291854349      -12.1077584838  MEMB      116             0.0000000000
     14328       116  POPE      C24            15.4849744451       -1.9222302658      -11.5551649844  MEMB      116             0.0000000000
     14329       116  POPE      H4R            16.3297855793       -2.5258326148      -11.9307517710  MEMB      116             0.0000000000
     14330       116  POPE      H4S            15.0032259789       -2.5405810565      -10.8447392828  MEMB      116             0.0000000000
     14331       116  POPE      C25            16.0237899924       -0.6419919867      -10.8950219854  MEMB      116             0.0000000000
     14332       116  POPE      H5R            15.7579731457        0.2418311166      -11.4707606514  MEMB      116             0.0000000000
     14333       116  POPE      H5S            17.0242161080       -0.8003084486      -10.4166147453  MEMB      116             0.0000000000
     14334       116  POPE      C26            15.1742236898       -0.1277443380       -9.8170551803  MEMB      116             0.0000000000
     14335       116  POPE      H6R            15.7315913747       -0.6575788705       -9.0031076728  MEMB      116             0.0000000000
     14336       116  POPE      H6S            14.1918293863       -0.5212504771      -10.2191044055  MEMB      116             0.0000000000
     14337       116  POPE      C27            15.0296078046        1.2055565007       -9.1134092255  MEMB      116             0.0000000000
     14338       116  POPE      H7R            14.8112024983        1.9724345605       -9.8683329256  MEMB      116             0.0000000000
     14339       116  POPE      H7S            15.9363362103        1.4057998695       -8.5249120926  MEMB      116             0.0000000000
     14340       116  POPE      C28            13.7889204021        1.3828570997       -8.2229072419  MEMB      116             0.0000000000
     14341       116  POPE      H8R            13.1037195431        1.2779161007       -9.1577830823  MEMB      116             0.0000000000
     14342       116  POPE      H8S            13.1065927451        0.6693135644       -7.9059308319  MEMB      116             0.0000000000
     14343       116  POPE      C29            13.9058966069        2.3234922685       -6.9549793961  MEMB      116             0.0000000000
     14344       116  POPE      H91            14.3141184843        3.2639197419       -7.3259912442  MEMB      116             0.0000000000
     14345       116  POPE      C210           13.6961621859        2.3834263163       -5.5387626929  MEMB      116             0.0000000000
     14346       116  POPE      H101           13.8106501415        3.3465150238       -5.0251345818  MEMB      116             0.0000000000
     14347       116  POPE      C211           13.1519765000        1.5396805310       -4.3545512693  MEMB      116             0.0000000000
     14348       116  POPE      H11R           12.7261565708        0.7507236557       -4.6946543109  MEMB      116             0.0000000000
     14349       116  POPE      H11S           12.1994126847        1.8304727919       -3.8477698596  MEMB      116             0.0000000000
     14350       116  POPE      C212           13.8631617644        0.3213463881       -3.6351450712  MEMB      116             0.0000000000
     14351       116  POPE      H12R           14.5777715229       -0.4096291166       -4.0438152941  MEMB      116             0.0000000000
     14352       116  POPE      H12S           13.2534391192       -0.4742951431       -3.1213472336  MEMB      116             0.0000000000
     14353       116  POPE      C213           14.8147346935        1.0556814838       -3.0126625042  MEMB      116             0.0000000000
     14354       116  POPE      H13R           13.7963616823        1.1513811498       -2.5377561694  MEMB      116             0.0000000000
     14355       116  POPE      H13S           15.0560604952        2.1145314804       -3.2081997287  MEMB      116             0.0000000000
     14356       116  POPE      C214           15.8325980859        0.1071952377       -2.5036300819  MEMB      116             0.0000000000
     14357       116  POPE      H14R           16.7616258490        0.1616414059       -3.0916915972  MEMB      116             0.0000000000
     14358       116  POPE      H14S           15.3508250386       -0.8792467825       -2.2413863075  MEMB      116             0.0000000000
     14359       116  POPE      C215           16.4217578935        0.4165793725       -1.2948987205  MEMB      116             0.0000000000
     14360       116  POPE      H15R           15.7349308063        0.6356162438       -0.6408265901  MEMB      116             0.0000000000
     14361       116  POPE      H15S           16.9164342902        1.4075267294       -1.2282656931  MEMB      116             0.0000000000
     14362       116  POPE      C216           16.5632478579       -0.7307183477       -0.4506936940  MEMB      116             0.0000000000
     14363       116  POPE      H16R           17.5500314637       -1.1911624918       -0.6471372221  MEMB      116             0.0000000000
     14364       116  POPE      H16S           15.7170257637       -1.4440760082       -0.3490430020  MEMB      116             0.0000000000
     14365       116  POPE      C217           16.5260730520       -0.1589077511        0.8403398610  MEMB      116             0.0000000000
     14366       116  POPE      H17R           16.8108830698       -1.1777254935        1.2046765896  MEMB      116             0.0000000000
     14367       116  POPE      H17S           15.8749733965        0.1025647405        1.6514795222  MEMB      116             0.0000000000
     14368       116  POPE      C218           17.1656625606        1.2689797286        0.9664069760  MEMB      116             0.0000000000
     14369       116  POPE      H18R           17.9895271839        1.3461712290        1.6839266129  MEMB      116             0.0000000000
     14370       116  POPE      H18S           16.6275168833        2.1037693712        1.2835269418  MEMB      116             0.0000000000
     14371       116  POPE      H18T           18.2143861863        1.4031992892        1.1632391855  MEMB      116             0.0000000000
     14372       116  POPE      C33            19.4517490178        1.3055439046      -11.6070691298  MEMB      116             0.0000000000
     14373       116  POPE      H3X            19.5031370939        0.3570716957      -11.0232710017  MEMB      116             0.0000000000
     14374       116  POPE      H3Y            18.4646122865        1.7508371957      -11.3521395791  MEMB      116             0.0000000000
     14375       116  POPE      C34            20.4895056885        2.2876223243      -11.0920594758  MEMB      116             0.0000000000
     14376       116  POPE      H4X            20.5140942419        3.2086864242      -11.7164984093  MEMB      116             0.0000000000
     14377       116  POPE      H4Y            21.5146928690        1.8678422961      -11.1120333730  MEMB      116             0.0000000000
     14378       116  POPE      C35            20.1423397735        2.6073348579       -9.6497392187  MEMB      116             0.0000000000
     14379       116  POPE      H5X            21.0955402257        2.8321182648       -9.1975260866  MEMB      116             0.0000000000
     14380       116  POPE      H5Y            19.6963857585        1.7627222845       -9.1024133654  MEMB      116             0.0000000000
     14381       116  POPE      C36            19.3293244445        3.8607074618       -9.4740678762  MEMB      116             0.0000000000
     14382       116  POPE      H6X            18.3694086973        3.8104589431      -10.0229590196  MEMB      116             0.0000000000
     14383       116  POPE      H6Y            19.9809524618        4.5902993285      -10.0199087928  MEMB      116             0.0000000000
     14384       116  POPE      C37            19.0250522901        4.2301668987       -7.9939019990  MEMB      116             0.0000000000
     14385       116  POPE      H7X            19.2225225349        5.2940644870       -7.8197388092  MEMB      116             0.0000000000
     14386       116  POPE      H7Y            19.7601223230        3.8161131188       -7.2982570040  MEMB      116             0.0000000000
     14387       116  POPE      C38            17.5886668319        3.8416161824       -7.5373067248  MEMB      116             0.0000000000
     14388       116  POPE      H8X            17.5077714210        2.7608890558       -7.7112818645  MEMB      116             0.0000000000
     14389       116  POPE      H8Y            16.7840808734        4.2999328701       -8.1602944673  MEMB      116             0.0000000000
     14390       116  POPE      C39            17.2384699681        4.1098745059       -6.0527433981  MEMB      116             0.0000000000
     14391       116  POPE      H9X            18.1604154266        3.9835552979       -5.4403928619  MEMB      116             0.0000000000
     14392       116  POPE      H9Y            16.4263612401        3.4400891904       -5.7432444961  MEMB      116             0.0000000000
     14393       116  POPE      C310           16.5831619056        5.4584634083       -5.8433791282  MEMB      116             0.0000000000
     14394       116  POPE      H10X           15.7399932151        5.6991428212       -6.5196006949  MEMB      116             0.0000000000
     14395       116  POPE      H10Y           17.4319328204        5.9446637569       -6.2767346090  MEMB      116             0.0000000000
     14396       116  POPE      C311           16.2300447861        6.0159882348       -4.4621775273  MEMB      116             0.0000000000
     14397       116  POPE      H11X           15.5068921783        6.8259295586       -4.7528285610  MEMB      116             0.0000000000
     14398       116  POPE      H11Y           17.0717437849        6.4639528687       -3.8767396765  MEMB      116             0.0000000000
     14399       116  POPE      C312           15.4730866264        5.0599529716       -3.5899177021  MEMB      116             0.0000000000
     14400       116  POPE      H12X           16.1006667218        4.1530525030       -3.5155616112  MEMB      116             0.0000000000
     14401       116  POPE      H12Y           14.5620931447        4.8803994747       -4.1997086714  MEMB      116             0.0000000000
     14402       116  POPE      C313           14.9964298509        5.6100068891       -2.2443904744  MEMB      116             0.0000000000
     14403       116  POPE      H13X           13.9094389247        5.3618520481       -2.1671459059  MEMB      116             0.0000000000
     14404       116  POPE      H13Y           15.1467626620        6.6977137122       -2.1382166699  MEMB      116             0.0000000000
     14405       116  POPE      C314           15.5730603879        5.0509134357       -0.9829823102  MEMB      116             0.0000000000
     14406       116  POPE      H14X           15.6604553055        3.9991201348       -1.0971999015  MEMB      116             0.0000000000
     14407       116  POPE      H14Y           14.8728164682        5.2315052171       -0.1334474809  MEMB      116             0.0000000000
     14408       116  POPE      C315           16.9553161005        5.4556653680       -0.6344127824  MEMB      116             0.0000000000
     14409       116  POPE      H15X           17.1778510439        6.5023699539       -0.5917380132  MEMB      116             0.0000000000
     14410       116  POPE      H15Y           17.7236576470        4.9334173086       -1.2581166123  MEMB      116             0.0000000000
     14411       116  POPE      C316           17.0782263173        5.1270983842        0.7615162162  MEMB      116             0.0000000000
     14412       116  POPE      H16X           16.3908112184        5.4624666087        1.5441161028  MEMB      116             0.0000000000
     14413       116  POPE      H16Y           18.1030680372        5.4259653516        1.1130853228  MEMB      116             0.0000000000
     14414       116  POPE      H16Z           16.9467592437        4.0176083904        0.7412514157  MEMB      116             0.0000000000
     14415       117  PMPG      C13           -16.9624618695       -4.1254557328      -21.1793631492  MEMB      117             0.0000000000
     14416       117  PMPG      H13A          -17.5504084398       -3.3381509266      -20.6856030111  MEMB      117             0.0000000000
     14417       117  PMPG      H13B          -16.6277108972       -3.7557144832      -22.1694235093  MEMB      117             0.0000000000
     14418       117  PMPG      OC3           -17.8909527082       -5.1865800487      -21.3186185390  MEMB      117             0.0000000000
     14419       117  PMPG      HO3           -18.0203065355       -5.5207696910      -20.4121575908  MEMB      117             0.0000000000
     14420       117  PMPG      C12           -15.7182611358       -4.4755517726      -20.3124975979  MEMB      117             0.0000000000
     14421       117  PMPG      H12A          -15.2810120264       -3.5229815942      -19.9558698699  MEMB      117             0.0000000000
     14422       117  PMPG      OC2           -14.6996081722       -5.0813618113      -21.0942691907  MEMB      117             0.0000000000
     14423       117  PMPG      HO2           -14.1245587769       -5.5269399952      -20.4710410140  MEMB      117             0.0000000000
     14424       117  PMPG      C11           -16.0369557624       -5.3366415061      -19.0717480115  MEMB      117             0.0000000000
     14425       117  PMPG      H11A          -15.1708196142       -5.3681967918      -18.3725609174  MEMB      117             0.0000000000
     14426       117  PMPG      H11B          -16.2204020797       -6.3777422793      -19.4362445207  MEMB      117             0.0000000000
     14427       117  PMPG      P             -17.9824088296       -5.7542852093      -17.3982157840  MEMB      117             0.0000000000
     14428       117  PMPG      O13           -17.8519871445       -7.1321978738      -17.8919650416  MEMB      117             0.0000000000
     14429       117  PMPG      O14           -19.3309548827       -5.1830073250      -17.2764462430  MEMB      117             0.0000000000
     14430       117  PMPG      O11           -17.2025224377       -5.5863354188      -16.0517632291  MEMB      117             0.0000000000
     14431       117  PMPG      O12           -17.1752310884       -4.7939888702      -18.4008456388  MEMB      117             0.0000000000
     14432       117  PMPG      C1            -16.4557285591       -4.4076104824      -15.7883750251  MEMB      117             0.0000000000
     14433       117  PMPG      HA            -16.9959526868       -3.4802757119      -16.0989782187  MEMB      117             0.0000000000
     14434       117  PMPG      HB            -15.4932424623       -4.4598238474      -16.3407268460  MEMB      117             0.0000000000
     14435       117  PMPG      C2            -16.1636302368       -4.3365814280      -14.2754258085  MEMB      117             0.0000000000
     14436       117  PMPG      HS            -15.3294999470       -3.6174863281      -14.1039839910  MEMB      117             0.0000000000
     14437       117  PMPG      O21           -15.8189623267       -5.6280983237      -13.7419381593  MEMB      117             0.0000000000
     14438       117  PMPG      C21           -14.6265643782       -6.0566958988      -14.1004274759  MEMB      117             0.0000000000
     14439       117  PMPG      O22           -13.8212388129       -5.4595460375      -14.7954525738  MEMB      117             0.0000000000
     14440       117  PMPG      C22           -14.3623980240       -7.3862705083      -13.4015861801  MEMB      117             0.0000000000
     14441       117  PMPG      H2R           -14.0905018564       -8.1415059149      -14.1654112855  MEMB      117             0.0000000000
     14442       117  PMPG      H2S           -15.2640318285       -7.7104398051      -12.8479300448  MEMB      117             0.0000000000
     14443       117  PMPG      C3            -17.3901996173       -3.7899727917      -13.5004784957  MEMB      117             0.0000000000
     14444       117  PMPG      HX            -18.2467770785       -4.4987725593      -13.6065643892  MEMB      117             0.0000000000
     14445       117  PMPG      HY            -17.7146313549       -2.8398784861      -13.9831575947  MEMB      117             0.0000000000
     14446       117  PMPG      O31           -16.9881457860       -3.5792367670      -12.1258191960  MEMB      117             0.0000000000
     14447       117  PMPG      C31           -17.9702809464       -3.4177191599      -11.2595102247  MEMB      117             0.0000000000
     14448       117  PMPG      O32           -19.1531684461       -3.3591944854      -11.5283627523  MEMB      117             0.0000000000
     14449       117  PMPG      C32           -17.3839851517       -3.1748719572       -9.8637266766  MEMB      117             0.0000000000
     14450       117  PMPG      H2X           -16.9543368671       -2.1928407318       -9.8280591255  MEMB      117             0.0000000000
     14451       117  PMPG      H2Y           -16.4477227011       -3.6458956628       -9.7003814765  MEMB      117             0.0000000000
     14452       117  PMPG      C23           -13.2571512846       -7.2272823513      -12.3667749701  MEMB      117             0.0000000000
     14453       117  PMPG      H3R           -12.4044716991       -6.6399650825      -12.7870629172  MEMB      117             0.0000000000
     14454       117  PMPG      H3S           -12.9201267979       -8.2348570611      -12.0139525432  MEMB      117             0.0000000000
     14455       117  PMPG      C24           -13.7500897120       -6.4951911107      -11.1593550785  MEMB      117             0.0000000000
     14456       117  PMPG      H4R           -14.5952364416       -7.0653643604      -10.6972531970  MEMB      117             0.0000000000
     14457       117  PMPG      H4S           -14.1271426036       -5.4909532087      -11.4412750590  MEMB      117             0.0000000000
     14458       117  PMPG      C25           -12.6660826377       -6.2251964493      -10.1457798254  MEMB      117             0.0000000000
     14459       117  PMPG      H5R           -11.8731367176       -5.5341608688      -10.4517123545  MEMB      117             0.0000000000
     14460       117  PMPG      H5S           -12.2059588408       -7.1840873448       -9.7759085235  MEMB      117             0.0000000000
     14461       117  PMPG      C26           -13.4322338143       -5.6302405414       -9.0220343542  MEMB      117             0.0000000000
     14462       117  PMPG      H6R           -12.9366066782       -5.2178442319       -8.1796953219  MEMB      117             0.0000000000
     14463       117  PMPG      H6S           -14.0389801017       -6.4950226178       -8.8760436356  MEMB      117             0.0000000000
     14464       117  PMPG      C27           -14.3830937326       -4.5301000034       -8.9101834468  MEMB      117             0.0000000000
     14465       117  PMPG      H7R           -14.8808128326       -4.5895909053       -7.8935702661  MEMB      117             0.0000000000
     14466       117  PMPG      H7S           -15.0872756191       -4.8011334599       -9.6860795937  MEMB      117             0.0000000000
     14467       117  PMPG      C28           -13.5408080382       -3.2825950551       -8.9853206145  MEMB      117             0.0000000000
     14468       117  PMPG      H8R           -14.2831106581       -2.5157916944       -9.2338159535  MEMB      117             0.0000000000
     14469       117  PMPG      H8S           -12.7787559117       -3.3684177841       -9.7960865086  MEMB      117             0.0000000000
     14470       117  PMPG      C29           -12.8242608313       -3.0802002575       -7.6363153697  MEMB      117             0.0000000000
     14471       117  PMPG      H9R           -11.8283109600       -3.5469397722       -7.4753683856  MEMB      117             0.0000000000
     14472       117  PMPG      C217          -12.9012023994       -1.7467158235       -7.0664657419  MEMB      117             0.0000000000
     14473       117  PMPG      H17R          -11.9316219715       -1.5152261533       -6.6438457758  MEMB      117             0.0000000000
     14474       117  PMPG      H17S          -13.4377949604       -1.1305723383       -7.7908847361  MEMB      117             0.0000000000
     14475       117  PMPG      C210          -13.6769351933       -2.7610255327       -6.4088062966  MEMB      117             0.0000000000
     14476       117  PMPG      H10R          -13.1830969742       -2.8120477803       -5.4181351336  MEMB      117             0.0000000000
     14477       117  PMPG      C211          -15.0431212321       -2.0636545513       -6.5497713108  MEMB      117             0.0000000000
     14478       117  PMPG      H11R          -15.2271480623       -1.6429199304       -7.5739737500  MEMB      117             0.0000000000
     14479       117  PMPG      H11S          -15.7943605553       -2.8426174262       -6.3939384230  MEMB      117             0.0000000000
     14480       117  PMPG      C212          -15.2998675281       -0.9045368161       -5.5751404059  MEMB      117             0.0000000000
     14481       117  PMPG      H12R          -16.1987004070       -0.3549348167       -5.9423409361  MEMB      117             0.0000000000
     14482       117  PMPG      H12S          -14.4934784510       -0.1678211488       -5.4631751543  MEMB      117             0.0000000000
     14483       117  PMPG      C213          -15.5701667245       -1.2911971537       -4.1344766364  MEMB      117             0.0000000000
     14484       117  PMPG      H13R          -16.3913832893       -2.0271226982       -4.0909830541  MEMB      117             0.0000000000
     14485       117  PMPG      H13S          -15.9251056832       -0.3099729750       -3.7328015180  MEMB      117             0.0000000000
     14486       117  PMPG      C214          -14.3234987210       -1.6903281685       -3.3312337699  MEMB      117             0.0000000000
     14487       117  PMPG      H14R          -13.4648490000       -1.1246011988       -3.7793057598  MEMB      117             0.0000000000
     14488       117  PMPG      H14S          -14.0831120211       -2.7717614273       -3.3586870038  MEMB      117             0.0000000000
     14489       117  PMPG      C215          -14.3922846493       -1.2300545419       -1.8802988504  MEMB      117             0.0000000000
     14490       117  PMPG      H15R          -15.0216109006       -0.3318959680       -1.8462021536  MEMB      117             0.0000000000
     14491       117  PMPG      H15S          -13.3453002251       -1.0140550659       -1.5580966217  MEMB      117             0.0000000000
     14492       117  PMPG      C216          -15.0875625513       -2.0849842380       -0.8481893231  MEMB      117             0.0000000000
     14493       117  PMPG      H16R          -15.1459543590       -1.4777302294        0.0844750290  MEMB      117             0.0000000000
     14494       117  PMPG      H16S          -14.4799222319       -2.9908276705       -0.6784402511  MEMB      117             0.0000000000
     14495       117  PMPG      H16T          -16.1317173999       -2.3286501573       -1.1425585158  MEMB      117             0.0000000000
     14496       117  PMPG      C33           -18.4087939903       -3.2620172022       -8.7183320628  MEMB      117             0.0000000000
     14497       117  PMPG      H3X           -19.3084179498       -2.6404525864       -8.9401564250  MEMB      117             0.0000000000
     14498       117  PMPG      H3Y           -17.9629731506       -2.8398050706       -7.7915318034  MEMB      117             0.0000000000
     14499       117  PMPG      C34           -18.8196023462       -4.6940346547       -8.4570330632  MEMB      117             0.0000000000
     14500       117  PMPG      H4X           -17.9457060863       -5.3570215082       -8.6348220064  MEMB      117             0.0000000000
     14501       117  PMPG      H4Y           -19.6031534541       -4.9190284655       -9.2186736075  MEMB      117             0.0000000000
     14502       117  PMPG      C35           -19.4420412599       -4.8976097592       -7.0687665724  MEMB      117             0.0000000000
     14503       117  PMPG      H5X           -19.9240630886       -5.9004528443       -7.0413216845  MEMB      117             0.0000000000
     14504       117  PMPG      H5Y           -20.2243694562       -4.1121109631       -6.9648851825  MEMB      117             0.0000000000
     14505       117  PMPG      C36           -18.5112871519       -4.7138385030       -5.8591343105  MEMB      117             0.0000000000
     14506       117  PMPG      H6X           -19.1028011737       -4.7891292864       -4.9190878970  MEMB      117             0.0000000000
     14507       117  PMPG      H6Y           -18.1087672441       -3.6796045426       -5.9061027832  MEMB      117             0.0000000000
     14508       117  PMPG      C37           -17.3031384306       -5.6519322584       -5.8405708654  MEMB      117             0.0000000000
     14509       117  PMPG      H7X           -16.6973836671       -5.3389434631       -6.7133256272  MEMB      117             0.0000000000
     14510       117  PMPG      H7Y           -17.5863081427       -6.7228701776       -5.9664392761  MEMB      117             0.0000000000
     14511       117  PMPG      C38           -16.4427275855       -5.5217001127       -4.5854874909  MEMB      117             0.0000000000
     14512       117  PMPG      H8X           -16.2604565095       -4.4628479736       -4.2945216747  MEMB      117             0.0000000000
     14513       117  PMPG      H8Y           -15.4523308357       -6.0029583108       -4.7339016679  MEMB      117             0.0000000000
     14514       117  PMPG      C39           -17.0461843403       -6.2811241671       -3.4400717254  MEMB      117             0.0000000000
     14515       117  PMPG      H9X           -16.8066292627       -7.3689520607       -3.5581779419  MEMB      117             0.0000000000
     14516       117  PMPG      H9Y           -18.1486390171       -6.1549618203       -3.3574810825  MEMB      117             0.0000000000
     14517       117  PMPG      C310          -16.4727372763       -5.8080595741       -2.1527557363  MEMB      117             0.0000000000
     14518       117  PMPG      H10X          -16.7468680563       -4.7786348544       -1.8411213300  MEMB      117             0.0000000000
     14519       117  PMPG      H10Y          -15.3557827210       -5.9165027320       -2.1082713803  MEMB      117             0.0000000000
     14520       117  PMPG      C311          -17.0196223802       -6.7409177706       -1.1493615777  MEMB      117             0.0000000000
     14521       117  PMPG      H11X          -16.3569259013       -6.3599244138       -0.3447677846  MEMB      117             0.0000000000
     14522       117  PMPG      H11Y          -16.7348258247       -7.7873654967       -1.4096054158  MEMB      117             0.0000000000
     14523       117  PMPG      C312          -18.5250552127       -6.8273784350       -0.8173139956  MEMB      117             0.0000000000
     14524       117  PMPG      H12X          -18.8527857063       -7.4045795029        0.0674761980  MEMB      117             0.0000000000
     14525       117  PMPG      H12Y          -19.0200286366       -7.4521676451       -1.5743396771  MEMB      117             0.0000000000
     14526       117  PMPG      C313          -19.1810640465       -5.5174617195       -0.5337007920  MEMB      117             0.0000000000
     14527       117  PMPG      H13X          -20.1334789078       -5.8182377952       -0.0449373857  MEMB      117             0.0000000000
     14528       117  PMPG      H13Y          -19.3682958394       -4.9664611190       -1.4615333304  MEMB      117             0.0000000000
     14529       117  PMPG      C314          -18.4061323541       -4.5807083634        0.3521658508  MEMB      117             0.0000000000
     14530       117  PMPG      H14X          -17.5133015723       -4.0763813900        0.0060101501  MEMB      117             0.0000000000
     14531       117  PMPG      H14Y          -18.2239927572       -5.0304198373        1.3064667778  MEMB      117             0.0000000000
     14532       117  PMPG      C315          -19.2737549270       -3.6487622359        0.9175702432  MEMB      117             0.0000000000
     14533       117  PMPG      H15X          -19.9114503165       -3.3844188382        0.0413622331  MEMB      117             0.0000000000
     14534       117  PMPG      H15Y          -18.7980963105       -2.6804436610        1.2452778635  MEMB      117             0.0000000000
     14535       117  PMPG      C316          -19.8902854459       -4.5834885439        2.0386336290  MEMB      117             0.0000000000
     14536       117  PMPG      H16X          -20.2052315884       -3.6412527181        2.0074891068  MEMB      117             0.0000000000
     14537       117  PMPG      H16Y          -19.9965114520       -4.4161748328        3.0869916192  MEMB      117             0.0000000000
     14538       117  PMPG      H16Z          -20.7284529595       -5.2303934026        1.7381922057  MEMB      117             0.0000000000
     14539       118  PMPE      N               8.7250792438      -17.0511660520      -18.3603326988  MEMB      118             0.0000000000
     14540       118  PMPE      HN1             9.5086239025      -17.7362470854      -18.3826980389  MEMB      118             0.0000000000
     14541       118  PMPE      HN2             7.9773843174      -17.3671122956      -17.7022088274  MEMB      118             0.0000000000
     14542       118  PMPE      HN3             8.3186175976      -16.9714961652      -19.3121555812  MEMB      118             0.0000000000
     14543       118  PMPE      C12             9.3272208209      -15.7214090904      -17.9786394995  MEMB      118             0.0000000000
     14544       118  PMPE      H12A            9.6651444053      -15.7615752398      -16.9214230410  MEMB      118             0.0000000000
     14545       118  PMPE      H12B            8.5544017247      -14.9360247454      -18.0910547597  MEMB      118             0.0000000000
     14546       118  PMPE      C11            10.5082644020      -15.3817927808      -18.8929659872  MEMB      118             0.0000000000
     14547       118  PMPE      H11A           10.2275066415      -15.6071221095      -19.9510140648  MEMB      118             0.0000000000
     14548       118  PMPE      H11B           11.3871598187      -16.0090855192      -18.5982780117  MEMB      118             0.0000000000
     14549       118  PMPE      P              12.0367624448      -13.2950680914      -19.4391991167  MEMB      118             0.0000000000
     14550       118  PMPE      O13            11.8875995273      -11.8238268117      -19.3053045345  MEMB      118             0.0000000000
     14551       118  PMPE      O14            12.2393174775      -13.8874186732      -20.7686059432  MEMB      118             0.0000000000
     14552       118  PMPE      O11            13.1762222933      -13.8009936839      -18.4821660936  MEMB      118             0.0000000000
     14553       118  PMPE      O12            10.7693492366      -13.9882871000      -18.7542066561  MEMB      118             0.0000000000
     14554       118  PMPE      C1             13.9248549776      -12.9715628292      -17.5969303641  MEMB      118             0.0000000000
     14555       118  PMPE      HA             14.0261864116      -11.9245898701      -17.9544357867  MEMB      118             0.0000000000
     14556       118  PMPE      HB             14.9402717612      -13.4279296203      -17.5252514198  MEMB      118             0.0000000000
     14557       118  PMPE      C2             13.3692161401      -12.9533806903      -16.1603708989  MEMB      118             0.0000000000
     14558       118  PMPE      HS             14.0627099108      -12.3758905684      -15.5056980088  MEMB      118             0.0000000000
     14559       118  PMPE      O21            13.2908850646      -14.2903453036      -15.7710216751  MEMB      118             0.0000000000
     14560       118  PMPE      C21            13.4813669437      -14.4958503642      -14.5356541318  MEMB      118             0.0000000000
     14561       118  PMPE      O22            13.9453871488      -13.7870075939      -13.6650384052  MEMB      118             0.0000000000
     14562       118  PMPE      C22            12.9134768307      -15.7824677859      -14.3418325809  MEMB      118             0.0000000000
     14563       118  PMPE      H2R            13.5167826468      -16.3551132472      -15.0995722160  MEMB      118             0.0000000000
     14564       118  PMPE      H2S            11.8656155021      -15.8828621239      -14.6858169819  MEMB      118             0.0000000000
     14565       118  PMPE      C3             11.9493270880      -12.3611402485      -16.0542207840  MEMB      118             0.0000000000
     14566       118  PMPE      HX             11.2371782401      -13.0412290083      -16.5737527155  MEMB      118             0.0000000000
     14567       118  PMPE      HY             11.9942099649      -11.3919829272      -16.5873398903  MEMB      118             0.0000000000
     14568       118  PMPE      O31            11.5613221106      -12.0815768328      -14.7053703720  MEMB      118             0.0000000000
     14569       118  PMPE      C31            10.8382860424      -12.9561811979      -14.0529093914  MEMB      118             0.0000000000
     14570       118  PMPE      O32            10.4352511133      -14.0371880530      -14.4485649634  MEMB      118             0.0000000000
     14571       118  PMPE      C32            10.6203247370      -12.3708783860      -12.6726610910  MEMB      118             0.0000000000
     14572       118  PMPE      H2X            10.0881659974      -11.4152893659      -12.8482429601  MEMB      118             0.0000000000
     14573       118  PMPE      H2Y            11.6331347356      -12.1715500672      -12.2585047842  MEMB      118             0.0000000000
     14574       118  PMPE      C23            12.9514613416      -16.0266549988      -12.8173445198  MEMB      118             0.0000000000
     14575       118  PMPE      H3R            12.1166685313      -16.7454037279      -12.6116262985  MEMB      118             0.0000000000
     14576       118  PMPE      H3S            12.6481167109      -15.2575368987      -12.1243230377  MEMB      118             0.0000000000
     14577       118  PMPE      C24            14.3988032788      -16.3415810782      -12.3707465350  MEMB      118             0.0000000000
     14578       118  PMPE      H4R            15.2799534301      -16.1934733271      -13.0107201025  MEMB      118             0.0000000000
     14579       118  PMPE      H4S            14.4555579257      -17.0449600496      -13.1044849367  MEMB      118             0.0000000000
     14580       118  PMPE      C25            14.6584958321      -16.9141831683      -10.9592112507  MEMB      118             0.0000000000
     14581       118  PMPE      H5R            15.7143709687      -17.2667906965      -10.8977550951  MEMB      118             0.0000000000
     14582       118  PMPE      H5S            13.9976717224      -17.7129567869      -10.5222138938  MEMB      118             0.0000000000
     14583       118  PMPE      C26            14.5193050253      -15.7147593909      -10.1396862023  MEMB      118             0.0000000000
     14584       118  PMPE      H6R            13.4377610992      -15.4736896751      -10.1709606519  MEMB      118             0.0000000000
     14585       118  PMPE      H6S            15.1025652083      -14.9888030207      -10.7605814344  MEMB      118             0.0000000000
     14586       118  PMPE      C27            15.0778826100      -15.7866452898       -8.7426165495  MEMB      118             0.0000000000
     14587       118  PMPE      H7R            14.7850008617      -14.8097254099       -8.2978174356  MEMB      118             0.0000000000
     14588       118  PMPE      H7S            16.1812149157      -15.8937171354       -8.8159550851  MEMB      118             0.0000000000
     14589       118  PMPE      C28            14.6070667371      -16.9066702912       -7.8286023624  MEMB      118             0.0000000000
     14590       118  PMPE      H8R            15.1035484823      -16.7076800464       -6.8541605145  MEMB      118             0.0000000000
     14591       118  PMPE      H8S            14.9812920884      -17.8825975199       -8.2007777417  MEMB      118             0.0000000000
     14592       118  PMPE      C29            13.0876388719      -16.8617062763       -7.7204174381  MEMB      118             0.0000000000
     14593       118  PMPE      H9R            12.4812356651      -16.9406594242       -8.6283205762  MEMB      118             0.0000000000
     14594       118  PMPE      C217           12.5468508109      -16.2575758094       -6.4229018365  MEMB      118             0.0000000000
     14595       118  PMPE      H17R           11.5926204572      -15.7778763721       -6.4928966346  MEMB      118             0.0000000000
     14596       118  PMPE      H17S           13.2797521541      -16.0498094101       -5.6438816282  MEMB      118             0.0000000000
     14597       118  PMPE      C210           12.3802963007      -17.7222657316       -6.7512590778  MEMB      118             0.0000000000
     14598       118  PMPE      H10R           11.4028092810      -18.1052707194       -7.0436075408  MEMB      118             0.0000000000
     14599       118  PMPE      C211           13.2261302784      -18.5918034450       -6.0239705808  MEMB      118             0.0000000000
     14600       118  PMPE      H11R           13.8286516460      -17.8758272049       -5.4854001899  MEMB      118             0.0000000000
     14601       118  PMPE      H11S           13.9973624395      -19.1294380308       -6.6452552094  MEMB      118             0.0000000000
     14602       118  PMPE      C212           12.2469757784      -19.5207149319       -5.2319505228  MEMB      118             0.0000000000
     14603       118  PMPE      H12R           12.7693151023      -20.4279854398       -5.1517578484  MEMB      118             0.0000000000
     14604       118  PMPE      H12S           11.4338275465      -19.8975324596       -5.8762348289  MEMB      118             0.0000000000
     14605       118  PMPE      C213           11.9373697880      -19.4240997634       -3.6971075065  MEMB      118             0.0000000000
     14606       118  PMPE      H13R           12.5531179463      -19.1699084454       -2.8731628474  MEMB      118             0.0000000000
     14607       118  PMPE      H13S           11.7817040006      -20.3156454938       -3.1361865294  MEMB      118             0.0000000000
     14608       118  PMPE      C214           10.9353204627      -18.5605707805       -3.6923467513  MEMB      118             0.0000000000
     14609       118  PMPE      H14R           10.4751639930      -19.4598651761       -4.1662631849  MEMB      118             0.0000000000
     14610       118  PMPE      H14S           10.9951823945      -17.8008018999       -4.4799687570  MEMB      118             0.0000000000
     14611       118  PMPE      C215           10.3855425785      -18.1707862731       -2.3646630390  MEMB      118             0.0000000000
     14612       118  PMPE      H15R           11.1142974750      -17.9204198489       -1.6036113026  MEMB      118             0.0000000000
     14613       118  PMPE      H15S            9.9081733154      -19.0792363295       -1.9636426736  MEMB      118             0.0000000000
     14614       118  PMPE      C216            9.4603102182      -16.9840338256       -2.6083816860  MEMB      118             0.0000000000
     14615       118  PMPE      H16R            8.5086377223      -17.4013790057       -2.6387573841  MEMB      118             0.0000000000
     14616       118  PMPE      H16S            8.8379709524      -16.5918916981       -1.8105949905  MEMB      118             0.0000000000
     14617       118  PMPE      H16T            9.2765441063      -16.7560167103       -3.6816684374  MEMB      118             0.0000000000
     14618       118  PMPE      C33             9.8312188287      -13.2929372710      -11.7204476766  MEMB      118             0.0000000000
     14619       118  PMPE      H3X            10.0304905009      -14.3580913947      -11.9141921198  MEMB      118             0.0000000000
     14620       118  PMPE      H3Y             8.7419250477      -13.0624382794      -11.8062340473  MEMB      118             0.0000000000
     14621       118  PMPE      C34            10.1798134935      -13.1637718100      -10.2622568332  MEMB      118             0.0000000000
     14622       118  PMPE      H4X            11.1830831392      -13.5250464225       -9.9393933853  MEMB      118             0.0000000000
     14623       118  PMPE      H4Y             9.3545097197      -13.5362881661       -9.6147644783  MEMB      118             0.0000000000
     14624       118  PMPE      C35            10.1802501412      -11.7826231636       -9.9311404043  MEMB      118             0.0000000000
     14625       118  PMPE      H5X             9.4657351461      -11.1996517662      -10.6156870244  MEMB      118             0.0000000000
     14626       118  PMPE      H5Y            11.2657128006      -11.4560740747       -9.8788332831  MEMB      118             0.0000000000
     14627       118  PMPE      C36             9.7274746677      -11.5600849426       -8.5404134702  MEMB      118             0.0000000000
     14628       118  PMPE      H6X             8.6847625698      -11.4788476161       -8.2837078964  MEMB      118             0.0000000000
     14629       118  PMPE      H6Y             9.8471688507      -10.5484766386       -8.9719764471  MEMB      118             0.0000000000
     14630       118  PMPE      C37            10.5788829097      -12.2881975440       -7.4251574809  MEMB      118             0.0000000000
     14631       118  PMPE      H7X            11.6714981483      -12.0926699699       -7.5904157194  MEMB      118             0.0000000000
     14632       118  PMPE      H7Y            10.4854293131      -13.3472690258       -7.7317545041  MEMB      118             0.0000000000
     14633       118  PMPE      C38            10.1053695491      -12.4338449382       -5.8951238922  MEMB      118             0.0000000000
     14634       118  PMPE      H8X             9.0542513010      -12.5847628770       -5.7856199518  MEMB      118             0.0000000000
     14635       118  PMPE      H8Y             9.9630244587      -11.6470927865       -5.0910658980  MEMB      118             0.0000000000
     14636       118  PMPE      C39            11.1797996161      -13.0413172107       -5.0276480503  MEMB      118             0.0000000000
     14637       118  PMPE      H9X            11.7364084075      -12.1406033588       -5.0203892121  MEMB      118             0.0000000000
     14638       118  PMPE      H9Y            11.8027949051      -13.8024336242       -5.5172530984  MEMB      118             0.0000000000
     14639       118  PMPE      C310           11.0465361430      -12.8710631775       -3.5225470577  MEMB      118             0.0000000000
     14640       118  PMPE      H10X           10.7597164600      -11.8209617445       -3.2519962147  MEMB      118             0.0000000000
     14641       118  PMPE      H10Y           11.9949458674      -13.0663100271       -2.9961221210  MEMB      118             0.0000000000
     14642       118  PMPE      C311            9.9794701989      -13.8443011968       -3.2166520438  MEMB      118             0.0000000000
     14643       118  PMPE      H11X           10.4774330770      -14.8301029637       -3.2586249243  MEMB      118             0.0000000000
     14644       118  PMPE      H11Y            9.2382175531      -13.8000453743       -4.0456360807  MEMB      118             0.0000000000
     14645       118  PMPE      C312            9.2135666947      -13.5665786480       -1.9590000244  MEMB      118             0.0000000000
     14646       118  PMPE      H12X            8.1554530178      -13.8125059252       -2.1658634722  MEMB      118             0.0000000000
     14647       118  PMPE      H12Y            9.2759901166      -12.4821317611       -1.6785504180  MEMB      118             0.0000000000
     14648       118  PMPE      C313            9.7026804309      -14.4452887988       -0.8189112069  MEMB      118             0.0000000000
     14649       118  PMPE      H13X           10.6246564681      -13.9453077987       -0.6610118733  MEMB      118             0.0000000000
     14650       118  PMPE      H13Y           10.1766743128      -15.4011990105       -1.0445059577  MEMB      118             0.0000000000
     14651       118  PMPE      C314            8.6957133603      -14.6127459177        0.3222080265  MEMB      118             0.0000000000
     14652       118  PMPE      H14X            9.1090102665      -15.0279878958        1.2662103758  MEMB      118             0.0000000000
     14653       118  PMPE      H14Y            7.8796777050      -15.2521423168       -0.0419524402  MEMB      118             0.0000000000
     14654       118  PMPE      C315            8.0161628854      -13.3413871521        0.6894435296  MEMB      118             0.0000000000
     14655       118  PMPE      H15X            7.2155255331      -13.4624711175        1.4492519643  MEMB      118             0.0000000000
     14656       118  PMPE      H15Y            7.5506231874      -12.9277836513       -0.2346450571  MEMB      118             0.0000000000
     14657       118  PMPE      C316            9.0209677654      -12.4431579550        1.2988624455  MEMB      118             0.0000000000
     14658       118  PMPE      H16X            9.2601181409      -12.6417013423        2.3633537879  MEMB      118             0.0000000000
     14659       118  PMPE      H16Y            8.7974767237      -11.4678524069        1.4694537716  MEMB      118             0.0000000000
     14660       118  PMPE      H16Z            9.7502408668      -11.9947271350        0.5933213108  MEMB      118             0.0000000000
     14661       119  PMPE      N              -5.7274959175      -17.9182212206      -21.6575772736  MEMB      119             0.0000000000
     14662       119  PMPE      HN1            -5.4911808162      -18.7070260028      -22.2950192883  MEMB      119             0.0000000000
     14663       119  PMPE      HN2            -6.5809535910      -18.1670369441      -21.0975036925  MEMB      119             0.0000000000
     14664       119  PMPE      HN3            -5.8933464715      -17.0750182849      -22.2248145165  MEMB      119             0.0000000000
     14665       119  PMPE      C12            -4.6060786768      -17.7008857476      -20.6703561017  MEMB      119             0.0000000000
     14666       119  PMPE      H12A           -3.6911146784      -17.4930694997      -21.2611516419  MEMB      119             0.0000000000
     14667       119  PMPE      H12B           -4.4424519309      -18.6410785359      -20.1044644980  MEMB      119             0.0000000000
     14668       119  PMPE      C11            -4.8874142404      -16.5392038235      -19.6833312715  MEMB      119             0.0000000000
     14669       119  PMPE      H11A           -4.7668757693      -15.5939913587      -20.2510746963  MEMB      119             0.0000000000
     14670       119  PMPE      H11B           -4.1247122612      -16.5505599084      -18.8706228126  MEMB      119             0.0000000000
     14671       119  PMPE      P              -6.6341972745      -17.6184353237      -18.0142163677  MEMB      119             0.0000000000
     14672       119  PMPE      O13            -6.7848909500      -18.8759274440      -18.7751355574  MEMB      119             0.0000000000
     14673       119  PMPE      O14            -7.7667872369      -17.1320482434      -17.2210267544  MEMB      119             0.0000000000
     14674       119  PMPE      O11            -5.3275003744      -17.6663925203      -17.1123681911  MEMB      119             0.0000000000
     14675       119  PMPE      O12            -6.1961671797      -16.5415596250      -19.1240362898  MEMB      119             0.0000000000
     14676       119  PMPE      C1             -5.0146054017      -18.8696471141      -16.3845432309  MEMB      119             0.0000000000
     14677       119  PMPE      HA             -3.9982934015      -18.7392155328      -15.9523443354  MEMB      119             0.0000000000
     14678       119  PMPE      HB             -4.9362328863      -19.7303466367      -17.0835317507  MEMB      119             0.0000000000
     14679       119  PMPE      C2             -6.0065554677      -19.1416079208      -15.1975124433  MEMB      119             0.0000000000
     14680       119  PMPE      HS             -6.9997530374      -19.4048629910      -15.6318761826  MEMB      119             0.0000000000
     14681       119  PMPE      O21            -6.0734747291      -17.9285343605      -14.4474921811  MEMB      119             0.0000000000
     14682       119  PMPE      C21            -7.2419369744      -17.6314899660      -13.9464655543  MEMB      119             0.0000000000
     14683       119  PMPE      O22            -8.2176359638      -18.3589680825      -13.8687674359  MEMB      119             0.0000000000
     14684       119  PMPE      C22            -7.1427939346      -16.2076635303      -13.4493766164  MEMB      119             0.0000000000
     14685       119  PMPE      H2R            -8.0370228228      -15.6985447855      -13.8597446218  MEMB      119             0.0000000000
     14686       119  PMPE      H2S            -6.2440587752      -15.7113019913      -13.8755761396  MEMB      119             0.0000000000
     14687       119  PMPE      C3             -5.6739516389      -20.3038924753      -14.2264662810  MEMB      119             0.0000000000
     14688       119  PMPE      HX             -5.3305361025      -21.1946603332      -14.8037013631  MEMB      119             0.0000000000
     14689       119  PMPE      HY             -6.6025029728      -20.6073119011      -13.6946585624  MEMB      119             0.0000000000
     14690       119  PMPE      O31            -4.6810196418      -19.8905228148      -13.2862252362  MEMB      119             0.0000000000
     14691       119  PMPE      C31            -5.0575454401      -19.4808166752      -12.0860037349  MEMB      119             0.0000000000
     14692       119  PMPE      O32            -6.1931874726      -19.4247338057      -11.6699218037  MEMB      119             0.0000000000
     14693       119  PMPE      C32            -3.8572723383      -19.1937163007      -11.2089905728  MEMB      119             0.0000000000
     14694       119  PMPE      H2X            -3.3002005565      -18.3116727033      -11.5442718629  MEMB      119             0.0000000000
     14695       119  PMPE      H2Y            -3.2165425637      -20.0171627440      -11.4073053996  MEMB      119             0.0000000000
     14696       119  PMPE      C23            -7.1432823717      -16.1978817700      -11.9166604138  MEMB      119             0.0000000000
     14697       119  PMPE      H3R            -6.1727625967      -16.5833303847      -11.5279935015  MEMB      119             0.0000000000
     14698       119  PMPE      H3S            -7.9700544580      -16.8525368213      -11.5427556548  MEMB      119             0.0000000000
     14699       119  PMPE      C24            -7.4388711370      -14.7914653595      -11.4514426660  MEMB      119             0.0000000000
     14700       119  PMPE      H4R            -8.4019153109      -14.4984405783      -11.9308898077  MEMB      119             0.0000000000
     14701       119  PMPE      H4S            -6.6100545880      -14.1170771410      -11.7653812113  MEMB      119             0.0000000000
     14702       119  PMPE      C25            -7.6025813101      -14.6758651397       -9.9673932657  MEMB      119             0.0000000000
     14703       119  PMPE      H5R            -6.5989121293      -14.8220043712       -9.5064125412  MEMB      119             0.0000000000
     14704       119  PMPE      H5S            -8.3163953013      -15.4221288887       -9.5460208372  MEMB      119             0.0000000000
     14705       119  PMPE      C26            -8.1072593676      -13.3261010652       -9.5912035327  MEMB      119             0.0000000000
     14706       119  PMPE      H6R            -9.1090009454      -13.0293749025       -9.9814179693  MEMB      119             0.0000000000
     14707       119  PMPE      H6S            -7.3740823049      -12.5055755855       -9.8226950158  MEMB      119             0.0000000000
     14708       119  PMPE      C27            -8.2148565758      -13.3619199930       -8.1256572313  MEMB      119             0.0000000000
     14709       119  PMPE      H7R            -9.0913772318      -13.8209726763       -7.6103495838  MEMB      119             0.0000000000
     14710       119  PMPE      H7S            -8.3345450437      -12.2910546869       -8.1384014406  MEMB      119             0.0000000000
     14711       119  PMPE      C28            -6.9773662296      -13.6956947917       -7.3866258453  MEMB      119             0.0000000000
     14712       119  PMPE      H8R            -6.1336922504      -13.0060618036       -7.6314800429  MEMB      119             0.0000000000
     14713       119  PMPE      H8S            -6.7176917280      -14.7430679486       -7.4579542927  MEMB      119             0.0000000000
     14714       119  PMPE      C29            -7.4959901575      -13.4607383037       -6.0649684663  MEMB      119             0.0000000000
     14715       119  PMPE      H9R            -7.5576401153      -12.3760108406       -5.9274451411  MEMB      119             0.0000000000
     14716       119  PMPE      C217           -6.7125766888      -14.1570929870       -4.9432107298  MEMB      119             0.0000000000
     14717       119  PMPE      H17R           -6.7242050619      -13.3741396818       -4.2393640080  MEMB      119             0.0000000000
     14718       119  PMPE      H17S           -5.8573614958      -14.7028682225       -5.2967154360  MEMB      119             0.0000000000
     14719       119  PMPE      C210           -8.0458940302      -14.5000663180       -5.2010412317  MEMB      119             0.0000000000
     14720       119  PMPE      H10R           -8.7194185245      -14.2957777948       -4.4494159497  MEMB      119             0.0000000000
     14721       119  PMPE      C211           -8.2125288758      -15.8264130881       -5.5455148636  MEMB      119             0.0000000000
     14722       119  PMPE      H11R           -7.3588220790      -16.0699779893       -6.1867435690  MEMB      119             0.0000000000
     14723       119  PMPE      H11S           -9.2388159359      -15.7063502386       -5.9627455598  MEMB      119             0.0000000000
     14724       119  PMPE      C212           -8.1773116744      -16.6070615425       -4.2698196674  MEMB      119             0.0000000000
     14725       119  PMPE      H12R           -7.2031639721      -16.5476798351       -3.7234151844  MEMB      119             0.0000000000
     14726       119  PMPE      H12S           -8.2884931938      -17.6327145378       -4.6716486443  MEMB      119             0.0000000000
     14727       119  PMPE      C213           -9.3143677501      -16.3407926869       -3.3175169308  MEMB      119             0.0000000000
     14728       119  PMPE      H13R          -10.3398564295      -16.4020247863       -3.7289509564  MEMB      119             0.0000000000
     14729       119  PMPE      H13S           -9.2778656211      -15.4659236941       -2.6345526351  MEMB      119             0.0000000000
     14730       119  PMPE      C214           -9.1852110012      -17.4279871733       -2.4105871747  MEMB      119             0.0000000000
     14731       119  PMPE      H14R           -8.1757718899      -17.2472075435       -1.8926298285  MEMB      119             0.0000000000
     14732       119  PMPE      H14S           -9.0243049033      -18.4181204647       -2.8336916762  MEMB      119             0.0000000000
     14733       119  PMPE      C215          -10.4879635917      -17.4040533624       -1.6499380062  MEMB      119             0.0000000000
     14734       119  PMPE      H15R          -11.3767177419      -18.0383708464       -1.8118709852  MEMB      119             0.0000000000
     14735       119  PMPE      H15S          -10.6964113418      -16.4671145296       -1.0183350074  MEMB      119             0.0000000000
     14736       119  PMPE      C216           -9.8482991731      -18.2026189105       -0.7756670431  MEMB      119             0.0000000000
     14737       119  PMPE      H16R          -10.3290646489      -18.0118353857        0.0639402636  MEMB      119             0.0000000000
     14738       119  PMPE      H16S           -9.7151473407      -19.2950104387       -0.6289731287  MEMB      119             0.0000000000
     14739       119  PMPE      H16T           -9.1057329851      -17.4448341509       -0.4339100252  MEMB      119             0.0000000000
     14740       119  PMPE      C33            -4.2607210026      -19.1600842826       -9.7310684551  MEMB      119             0.0000000000
     14741       119  PMPE      H3X            -4.6509006650      -20.1505206411       -9.3832360500  MEMB      119             0.0000000000
     14742       119  PMPE      H3Y            -5.0504697887      -18.3965627004       -9.5865156877  MEMB      119             0.0000000000
     14743       119  PMPE      C34            -3.1913182919      -18.7427932294       -8.7510127105  MEMB      119             0.0000000000
     14744       119  PMPE      H4X            -2.7381661201      -17.7573257442       -8.9722110689  MEMB      119             0.0000000000
     14745       119  PMPE      H4Y            -2.3605876206      -19.4184560830       -8.8701304023  MEMB      119             0.0000000000
     14746       119  PMPE      C35            -3.8661998462      -18.7823489631       -7.3742776663  MEMB      119             0.0000000000
     14747       119  PMPE      H5X            -4.3522138526      -19.7626996948       -7.1839892632  MEMB      119             0.0000000000
     14748       119  PMPE      H5Y            -4.5872907337      -17.9383747369       -7.3780711254  MEMB      119             0.0000000000
     14749       119  PMPE      C36            -2.9457852173      -18.4823776969       -6.2397119158  MEMB      119             0.0000000000
     14750       119  PMPE      H6X            -3.3728801652      -17.8858083289       -5.4222004774  MEMB      119             0.0000000000
     14751       119  PMPE      H6Y            -2.4174516505      -17.6867263621       -6.7902842516  MEMB      119             0.0000000000
     14752       119  PMPE      C37            -2.2423348139      -19.8068698712       -5.8069260287  MEMB      119             0.0000000000
     14753       119  PMPE      H7X            -1.8029420542      -20.2337661161       -6.7006092457  MEMB      119             0.0000000000
     14754       119  PMPE      H7Y            -2.9895814398      -20.4818472980       -5.3557923341  MEMB      119             0.0000000000
     14755       119  PMPE      C38            -1.1882787986      -19.8024545625       -4.7382767952  MEMB      119             0.0000000000
     14756       119  PMPE      H8X            -0.1985781379      -19.4181274980       -5.1237819094  MEMB      119             0.0000000000
     14757       119  PMPE      H8Y            -0.6434816782      -20.6330470548       -4.2464790543  MEMB      119             0.0000000000
     14758       119  PMPE      C39            -1.9839117501      -19.0735985553       -3.7279117398  MEMB      119             0.0000000000
     14759       119  PMPE      H9X            -2.3331936405      -18.0573322996       -3.8773936940  MEMB      119             0.0000000000
     14760       119  PMPE      H9Y            -1.0522176120      -19.0079713769       -3.3536772076  MEMB      119             0.0000000000
     14761       119  PMPE      C310           -2.9953132217      -19.3840465854       -2.7847087990  MEMB      119             0.0000000000
     14762       119  PMPE      H10X           -2.5600170585      -20.3064627520       -2.4353230980  MEMB      119             0.0000000000
     14763       119  PMPE      H10Y           -3.7592158910      -19.5477007693       -3.5405903867  MEMB      119             0.0000000000
     14764       119  PMPE      C311           -3.3471900333      -18.1803622543       -1.8353560518  MEMB      119             0.0000000000
     14765       119  PMPE      H11X           -2.6293938189      -17.6180729860       -1.2291146085  MEMB      119             0.0000000000
     14766       119  PMPE      H11Y           -3.9038650803      -18.7068356161       -1.0439842192  MEMB      119             0.0000000000
     14767       119  PMPE      C312           -3.8741569526      -16.8416229099       -2.3769500375  MEMB      119             0.0000000000
     14768       119  PMPE      H12X           -4.4978111267      -17.1456355743       -3.2078097323  MEMB      119             0.0000000000
     14769       119  PMPE      H12Y           -3.3332891807      -16.0202229996       -2.8559065371  MEMB      119             0.0000000000
     14770       119  PMPE      C313           -4.3879669283      -16.0483149475       -1.1985887762  MEMB      119             0.0000000000
     14771       119  PMPE      H13X           -5.1372260913      -16.7880853773       -0.9639870026  MEMB      119             0.0000000000
     14772       119  PMPE      H13Y           -5.0170696117      -15.2266912929       -1.4913257496  MEMB      119             0.0000000000
     14773       119  PMPE      C314           -3.3778866752      -15.5021099128       -0.0943438698  MEMB      119             0.0000000000
     14774       119  PMPE      H14X           -2.5842198715      -14.9633699840       -0.6191503791  MEMB      119             0.0000000000
     14775       119  PMPE      H14Y           -3.0525050119      -16.3924892233        0.4630986776  MEMB      119             0.0000000000
     14776       119  PMPE      C315           -3.5608660832      -14.2912547235        0.8861745928  MEMB      119             0.0000000000
     14777       119  PMPE      H15X           -2.7191968323      -14.0617903035        1.5699665475  MEMB      119             0.0000000000
     14778       119  PMPE      H15Y           -4.0586903048      -14.6002381969        1.7003925463  MEMB      119             0.0000000000
     14779       119  PMPE      C316           -4.6802592956      -13.2803556453        0.7040417102  MEMB      119             0.0000000000
     14780       119  PMPE      H16X           -5.6282298818      -13.6666111430        0.2509773095  MEMB      119             0.0000000000
     14781       119  PMPE      H16Y           -4.1789509188      -12.6259252023        0.0413122481  MEMB      119             0.0000000000
     14782       119  PMPE      H16Z           -4.9582930179      -12.7081689805        1.6006776009  MEMB      119             0.0000000000
     14783       120  PMPE      N              -0.1353983113       20.5295929212      -21.6782074155  MEMB      120             0.0000000000
     14784       120  PMPE      HN1            -0.8521448229       20.4845896638      -20.9222432491  MEMB      120             0.0000000000
     14785       120  PMPE      HN2            -0.0401662941       21.4759911314      -22.1013895874  MEMB      120             0.0000000000
     14786       120  PMPE      HN3            -0.3224328623       19.7970715818      -22.3930727353  MEMB      120             0.0000000000
     14787       120  PMPE      C12             1.1307742702       20.1739580335      -20.9845104592  MEMB      120             0.0000000000
     14788       120  PMPE      H12A            1.4010465725       21.0180872341      -20.3212590642  MEMB      120             0.0000000000
     14789       120  PMPE      H12B            1.9005350411       19.9909549078      -21.7268762907  MEMB      120             0.0000000000
     14790       120  PMPE      C11             0.9875513701       18.8699983607      -20.2341241526  MEMB      120             0.0000000000
     14791       120  PMPE      H11A            2.0177536075       18.5834991341      -19.9005631681  MEMB      120             0.0000000000
     14792       120  PMPE      H11B            0.6064570153       18.0649296384      -20.9018552142  MEMB      120             0.0000000000
     14793       120  PMPE      P               0.5654308964       19.5536815552      -17.7474417115  MEMB      120             0.0000000000
     14794       120  PMPE      O13            -0.6489613948       19.9092326343      -17.0005092138  MEMB      120             0.0000000000
     14795       120  PMPE      O14             1.5896071531       20.6013098953      -17.9923202392  MEMB      120             0.0000000000
     14796       120  PMPE      O11             1.1951829624       18.2118518089      -17.2257494127  MEMB      120             0.0000000000
     14797       120  PMPE      O12             0.0651155835       19.0626331414      -19.1794779910  MEMB      120             0.0000000000
     14798       120  PMPE      C1              0.3243244369       17.0857709465      -17.5001026908  MEMB      120             0.0000000000
     14799       120  PMPE      HA              0.6330271172       16.5624557045      -18.4332695328  MEMB      120             0.0000000000
     14800       120  PMPE      HB             -0.7597910310       17.2855441933      -17.3726605971  MEMB      120             0.0000000000
     14801       120  PMPE      C2              0.4750307705       16.0458539085      -16.5060606523  MEMB      120             0.0000000000
     14802       120  PMPE      HS             -0.1010710316       15.0992295228      -16.5610528097  MEMB      120             0.0000000000
     14803       120  PMPE      O21             0.1545008407       16.6686461178      -15.2218558522  MEMB      120             0.0000000000
     14804       120  PMPE      C21            -1.0227319812       16.4245212198      -14.6430978756  MEMB      120             0.0000000000
     14805       120  PMPE      O22            -1.8915635454       15.6862159361      -15.0470547405  MEMB      120             0.0000000000
     14806       120  PMPE      C22            -1.1053417829       17.1832514038      -13.3207301691  MEMB      120             0.0000000000
     14807       120  PMPE      H2R            -0.5474498767       18.1352259836      -13.4281182897  MEMB      120             0.0000000000
     14808       120  PMPE      H2S            -0.5791417075       16.4681686828      -12.6786387895  MEMB      120             0.0000000000
     14809       120  PMPE      C3              2.0501734037       15.6539482329      -16.9257057896  MEMB      120             0.0000000000
     14810       120  PMPE      HX              2.0976021263       14.9832072661      -17.7627047711  MEMB      120             0.0000000000
     14811       120  PMPE      HY              1.8886205241       15.0358703040      -16.0856676246  MEMB      120             0.0000000000
     14812       120  PMPE      O31             3.3978948713       16.3738667523      -17.0267021566  MEMB      120             0.0000000000
     14813       120  PMPE      C31             3.4550064053       16.9678222570      -15.8653354090  MEMB      120             0.0000000000
     14814       120  PMPE      O32             2.5216931857       16.8935616442      -15.1835015491  MEMB      120             0.0000000000
     14815       120  PMPE      C32             4.5405705253       17.8729430013      -15.3672568118  MEMB      120             0.0000000000
     14816       120  PMPE      H2X             4.2267460567       18.8010952550      -15.8549977210  MEMB      120             0.0000000000
     14817       120  PMPE      H2Y             5.5519444092       17.4136928652      -15.4909749962  MEMB      120             0.0000000000
     14818       120  PMPE      C23            -2.3987381963       17.4609109429      -12.6029412633  MEMB      120             0.0000000000
     14819       120  PMPE      H3R            -2.8189098667       16.5128024526      -12.3106983150  MEMB      120             0.0000000000
     14820       120  PMPE      H3S            -3.0486965363       17.8933683708      -13.3735843476  MEMB      120             0.0000000000
     14821       120  PMPE      C24            -2.2786170177       18.3912810094      -11.3809535412  MEMB      120             0.0000000000
     14822       120  PMPE      H4R            -3.2639193131       18.4644079530      -10.8915278328  MEMB      120             0.0000000000
     14823       120  PMPE      H4S            -1.8883817382       19.3582967812      -11.7701368861  MEMB      120             0.0000000000
     14824       120  PMPE      C25            -1.3412002185       17.9623374622      -10.2759608841  MEMB      120             0.0000000000
     14825       120  PMPE      H5R            -0.4229346558       17.9180516361      -10.8131260766  MEMB      120             0.0000000000
     14826       120  PMPE      H5S            -1.5525217816       16.9839426979       -9.8812840430  MEMB      120             0.0000000000
     14827       120  PMPE      C26            -1.1403145078       18.8316624944       -9.0499431776  MEMB      120             0.0000000000
     14828       120  PMPE      H6R            -0.5493296343       19.7008706280       -9.3998183369  MEMB      120             0.0000000000
     14829       120  PMPE      H6S            -0.5380379335       18.2264382638       -8.3295807014  MEMB      120             0.0000000000
     14830       120  PMPE      C27            -2.4589092562       19.1411915891       -8.3638671202  MEMB      120             0.0000000000
     14831       120  PMPE      H7R            -3.0629911777       18.2047859267       -8.4585820070  MEMB      120             0.0000000000
     14832       120  PMPE      H7S            -2.9716111944       19.9625786478       -8.9069394584  MEMB      120             0.0000000000
     14833       120  PMPE      C28            -2.4039805650       19.4397019381       -6.8626689373  MEMB      120             0.0000000000
     14834       120  PMPE      H8R            -1.9617458538       20.4408382171       -6.6779345996  MEMB      120             0.0000000000
     14835       120  PMPE      H8S            -1.7686307763       18.7052002210       -6.3261230463  MEMB      120             0.0000000000
     14836       120  PMPE      C29            -3.8318482551       19.2446476260       -6.3401760706  MEMB      120             0.0000000000
     14837       120  PMPE      H9R            -4.2712638018       18.2457508564       -6.3698555698  MEMB      120             0.0000000000
     14838       120  PMPE      C217           -4.7658760441       20.4377135861       -6.4892582346  MEMB      120             0.0000000000
     14839       120  PMPE      H17R           -5.8067127699       20.2171253866       -6.5534234135  MEMB      120             0.0000000000
     14840       120  PMPE      H17S           -4.3029450338       21.2219473893       -7.0618135786  MEMB      120             0.0000000000
     14841       120  PMPE      C210           -4.2643460661       19.9416112184       -5.1205659102  MEMB      120             0.0000000000
     14842       120  PMPE      H10R           -5.1166678776       19.5976486791       -4.5143672448  MEMB      120             0.0000000000
     14843       120  PMPE      C211           -3.2776925530       20.7366104407       -4.3903720771  MEMB      120             0.0000000000
     14844       120  PMPE      H11R           -3.9421001371       21.3688710858       -3.7170685609  MEMB      120             0.0000000000
     14845       120  PMPE      H11S           -2.6392565024       21.2966840916       -5.0474562068  MEMB      120             0.0000000000
     14846       120  PMPE      C212           -2.2439688475       20.4007030167       -3.5520579539  MEMB      120             0.0000000000
     14847       120  PMPE      H12R           -1.4457669018       21.2052184936       -3.4891125192  MEMB      120             0.0000000000
     14848       120  PMPE      H12S           -1.8786475710       19.4808818471       -4.0397787402  MEMB      120             0.0000000000
     14849       120  PMPE      C213           -3.1108991615       20.4827173552       -2.3081924747  MEMB      120             0.0000000000
     14850       120  PMPE      H13R           -2.3300832116       20.0831625617       -2.0400165086  MEMB      120             0.0000000000
     14851       120  PMPE      H13S           -3.9794997599       19.7873414403       -2.3124681603  MEMB      120             0.0000000000
     14852       120  PMPE      C214           -2.8463189680       21.6932290913       -1.4607112452  MEMB      120             0.0000000000
     14853       120  PMPE      H14R           -3.4334028413       22.4982741471       -1.8847990745  MEMB      120             0.0000000000
     14854       120  PMPE      H14S           -1.7594564779       21.9436145283       -1.3500973048  MEMB      120             0.0000000000
     14855       120  PMPE      C215           -3.2997664436       21.4976890111       -0.0947813645  MEMB      120             0.0000000000
     14856       120  PMPE      H15R           -2.7223738888       20.8230154858        0.5154929284  MEMB      120             0.0000000000
     14857       120  PMPE      H15S           -4.2865898802       21.0774845869       -0.3327978744  MEMB      120             0.0000000000
     14858       120  PMPE      C216           -3.2934089747       22.7774051613        0.6275416903  MEMB      120             0.0000000000
     14859       120  PMPE      H16R           -3.6829848866       23.5919804274        0.0328344966  MEMB      120             0.0000000000
     14860       120  PMPE      H16S           -4.0942531087       22.8608445105        1.3093396256  MEMB      120             0.0000000000
     14861       120  PMPE      H16T           -2.4478365019       22.8764536205        1.3384681054  MEMB      120             0.0000000000
     14862       120  PMPE      C33             4.5323340378       18.3441891226      -13.8684828331  MEMB      120             0.0000000000
     14863       120  PMPE      H3X             5.0379724283       19.1305056595      -13.8543343821  MEMB      120             0.0000000000
     14864       120  PMPE      H3Y             5.0193551943       17.5005314563      -13.3234486814  MEMB      120             0.0000000000
     14865       120  PMPE      C34             3.7352445209       19.6036691314      -13.0470674678  MEMB      120             0.0000000000
     14866       120  PMPE      H4X             2.7206592853       19.3857517014      -12.9033996154  MEMB      120             0.0000000000
     14867       120  PMPE      H4Y             3.4366749251       20.3352598859      -13.7850096240  MEMB      120             0.0000000000
     14868       120  PMPE      C35             3.4967539091       19.9890475885      -11.4959780570  MEMB      120             0.0000000000
     14869       120  PMPE      H5X             2.5487199107       20.5289034252      -11.3329642275  MEMB      120             0.0000000000
     14870       120  PMPE      H5Y             4.1163908634       20.7770004048      -11.0881965750  MEMB      120             0.0000000000
     14871       120  PMPE      C36             3.5752989942       18.9762977030      -10.3906473104  MEMB      120             0.0000000000
     14872       120  PMPE      H6X             4.2498746471       18.2368500910      -10.7741225915  MEMB      120             0.0000000000
     14873       120  PMPE      H6Y             2.8765943687       18.2843220819      -10.1531242846  MEMB      120             0.0000000000
     14874       120  PMPE      C37             3.4742041604       19.5003876445       -8.9745184253  MEMB      120             0.0000000000
     14875       120  PMPE      H7X             4.1136897267       20.3834806715       -8.9404275699  MEMB      120             0.0000000000
     14876       120  PMPE      H7Y             3.7351995619       18.7305147051       -8.2334378815  MEMB      120             0.0000000000
     14877       120  PMPE      C38             2.0747662973       19.8704967319       -8.5530186396  MEMB      120             0.0000000000
     14878       120  PMPE      H8X             1.3963792645       19.0375076238       -8.8350369319  MEMB      120             0.0000000000
     14879       120  PMPE      H8Y             1.8290263315       20.7818898567       -9.1144011686  MEMB      120             0.0000000000
     14880       120  PMPE      C39             1.9429590120       20.2164360977       -7.0780420440  MEMB      120             0.0000000000
     14881       120  PMPE      H9X             0.9903208288       20.7609766088       -6.9196278018  MEMB      120             0.0000000000
     14882       120  PMPE      H9Y             2.8475087901       20.7109529131       -6.6595874808  MEMB      120             0.0000000000
     14883       120  PMPE      C310            1.7692370587       19.0249692842       -6.2383091192  MEMB      120             0.0000000000
     14884       120  PMPE      H10X            2.7990966711       18.6891293652       -5.9857684130  MEMB      120             0.0000000000
     14885       120  PMPE      H10Y            1.1642451362       18.3160973962       -6.8387095704  MEMB      120             0.0000000000
     14886       120  PMPE      C311            0.9801261118       19.2045080081       -4.9767665960  MEMB      120             0.0000000000
     14887       120  PMPE      H11X            0.7379534232       18.2197281133       -4.7685800508  MEMB      120             0.0000000000
     14888       120  PMPE      H11Y           -0.0722278850       19.4652079501       -5.0677705725  MEMB      120             0.0000000000
     14889       120  PMPE      C312            1.8202798725       19.7981986932       -3.8735066480  MEMB      120             0.0000000000
     14890       120  PMPE      H12X            1.7588997334       20.8774967559       -4.1015519500  MEMB      120             0.0000000000
     14891       120  PMPE      H12Y            2.8730924521       19.4166417133       -3.9060195238  MEMB      120             0.0000000000
     14892       120  PMPE      C313            1.3340816489       19.6185625805       -2.4427158225  MEMB      120             0.0000000000
     14893       120  PMPE      H13X            0.3615947428       20.1331328935       -2.3899915509  MEMB      120             0.0000000000
     14894       120  PMPE      H13Y            2.0764005064       20.1902128440       -1.8586174372  MEMB      120             0.0000000000
     14895       120  PMPE      C314            1.3498039489       18.1381505393       -2.0304323568  MEMB      120             0.0000000000
     14896       120  PMPE      H14X            2.3886706824       17.8844526435       -2.3289522814  MEMB      120             0.0000000000
     14897       120  PMPE      H14Y            0.5726653537       17.5678293471       -2.4790752307  MEMB      120             0.0000000000
     14898       120  PMPE      C315            1.2249145692       17.4110204809       -0.6697593449  MEMB      120             0.0000000000
     14899       120  PMPE      H15X            1.5921777702       18.1646837660       -0.3033720404  MEMB      120             0.0000000000
     14900       120  PMPE      H15Y            1.8607148522       16.6562818495       -0.2162218763  MEMB      120             0.0000000000
     14901       120  PMPE      C316            0.2300158144       17.1008478641        0.2039087677  MEMB      120             0.0000000000
     14902       120  PMPE      H16X            0.2541631100       17.4632271293        1.1449750720  MEMB      120             0.0000000000
     14903       120  PMPE      H16Y           -0.7485317264       16.7350039055       -0.0976266096  MEMB      120             0.0000000000
     14904       120  PMPE      H16Z            0.2519125326       18.1460661968        0.6479669101  MEMB      120             0.0000000000
     14905       121  OYPE      N             -10.8910661880       17.9361104987      -20.5784025834  MEMB      121             0.0000000000
     14906       121  OYPE      HN1           -11.8926574250       17.6521236852      -20.6110459076  MEMB      121             0.0000000000
     14907       121  OYPE      HN2           -10.7276422859       18.9254978301      -20.3502924165  MEMB      121             0.0000000000
     14908       121  OYPE      HN3           -10.3566637085       17.6424419684      -21.4326556853  MEMB      121             0.0000000000
     14909       121  OYPE      C12           -10.2924932317       17.2399401228      -19.4177728340  MEMB      121             0.0000000000
     14910       121  OYPE      H12A          -10.6128558759       16.2523262431      -19.6464623116  MEMB      121             0.0000000000
     14911       121  OYPE      H12B          -10.7811353951       17.5165277346      -18.4582171607  MEMB      121             0.0000000000
     14912       121  OYPE      C11            -8.7924215093       17.3619590760      -19.3573529398  MEMB      121             0.0000000000
     14913       121  OYPE      H11A           -8.3088496543       17.1667984302      -20.3423538039  MEMB      121             0.0000000000
     14914       121  OYPE      H11B           -8.3616067655       16.6313691432      -18.6237810906  MEMB      121             0.0000000000
     14915       121  OYPE      P              -7.2037831116       19.2561660975      -18.5296063767  MEMB      121             0.0000000000
     14916       121  OYPE      O13            -6.6275528803       19.7947792941      -19.7888352510  MEMB      121             0.0000000000
     14917       121  OYPE      O14            -6.4760418739       18.2372760078      -17.7597512808  MEMB      121             0.0000000000
     14918       121  OYPE      O11            -7.7067881218       20.4360201921      -17.6311917071  MEMB      121             0.0000000000
     14919       121  OYPE      O12            -8.6153786404       18.6896218123      -18.9406890374  MEMB      121             0.0000000000
     14920       121  OYPE      C1             -9.0443306241       20.9785880447      -17.6830553058  MEMB      121             0.0000000000
     14921       121  OYPE      HA             -9.7029058743       20.6051356396      -18.4846517607  MEMB      121             0.0000000000
     14922       121  OYPE      HB             -8.9708242561       22.0383600616      -18.0052702127  MEMB      121             0.0000000000
     14923       121  OYPE      C2             -9.7582346078       20.9506302681      -16.2687795125  MEMB      121             0.0000000000
     14924       121  OYPE      HS            -10.6145649548       21.6567859296      -16.3654603369  MEMB      121             0.0000000000
     14925       121  OYPE      O21            -8.9247311490       21.3524551402      -15.1499823322  MEMB      121             0.0000000000
     14926       121  OYPE      C21            -9.4734239967       21.6605857254      -13.9912577726  MEMB      121             0.0000000000
     14927       121  OYPE      O22           -10.6626661519       21.7744792924      -13.7585845153  MEMB      121             0.0000000000
     14928       121  OYPE      C22            -8.3389183527       22.0584579920      -13.0280156092  MEMB      121             0.0000000000
     14929       121  OYPE      H2R            -7.7676047633       22.9016222401      -13.4359515015  MEMB      121             0.0000000000
     14930       121  OYPE      H2S            -7.5789146915       21.2754497275      -12.9552698505  MEMB      121             0.0000000000
     14931       121  OYPE      C3            -10.1832396735       19.5143544221      -15.9616830370  MEMB      121             0.0000000000
     14932       121  OYPE      HX            -10.6900171427       19.0772486107      -16.8458142761  MEMB      121             0.0000000000
     14933       121  OYPE      HY            -10.9028286804       19.6111898550      -15.1185297442  MEMB      121             0.0000000000
     14934       121  OYPE      O31            -8.9993238235       18.7603908565      -15.6009414014  MEMB      121             0.0000000000
     14935       121  OYPE      C31            -9.1854366023       17.6687457873      -14.8845767313  MEMB      121             0.0000000000
     14936       121  OYPE      O32           -10.2605233430       17.1180663121      -14.7195014561  MEMB      121             0.0000000000
     14937       121  OYPE      C32            -7.8795509052       17.1766361072      -14.2450693180  MEMB      121             0.0000000000
     14938       121  OYPE      H2X            -8.1110144691       16.1848011029      -13.8037708282  MEMB      121             0.0000000000
     14939       121  OYPE      H2Y            -7.1617830016       17.0098129043      -15.0784075963  MEMB      121             0.0000000000
     14940       121  OYPE      C23            -8.8278973370       22.4591807195      -11.6361057348  MEMB      121             0.0000000000
     14941       121  OYPE      H3R            -9.3676187025       21.6121221183      -11.2001118621  MEMB      121             0.0000000000
     14942       121  OYPE      H3S            -9.6340992674       23.2316132227      -11.6277761657  MEMB      121             0.0000000000
     14943       121  OYPE      C24            -7.6507189523       22.9098353922      -10.7672572904  MEMB      121             0.0000000000
     14944       121  OYPE      H4R            -7.1516502151       23.7243556197      -11.3648621373  MEMB      121             0.0000000000
     14945       121  OYPE      H4S            -6.7275708324       22.3357335533      -10.7462589624  MEMB      121             0.0000000000
     14946       121  OYPE      C25            -8.2399788323       23.2102054080       -9.3467668422  MEMB      121             0.0000000000
     14947       121  OYPE      H5R            -8.8062678285       22.3743266482       -8.9317785779  MEMB      121             0.0000000000
     14948       121  OYPE      H5S            -9.1198532965       23.8952838276       -9.3903368110  MEMB      121             0.0000000000
     14949       121  OYPE      C26            -7.2634051636       23.7138177496       -8.2924905992  MEMB      121             0.0000000000
     14950       121  OYPE      H6R            -6.5323595433       24.4611866290       -8.6369498880  MEMB      121             0.0000000000
     14951       121  OYPE      H6S            -6.5399220510       22.9229961796       -8.0277208069  MEMB      121             0.0000000000
     14952       121  OYPE      C27            -8.0027904624       24.3353682645       -7.0215369094  MEMB      121             0.0000000000
     14953       121  OYPE      H7R            -8.6099722641       23.4659949812       -6.5673017450  MEMB      121             0.0000000000
     14954       121  OYPE      H7S            -8.8601836614       24.9970074592       -7.1551602024  MEMB      121             0.0000000000
     14955       121  OYPE      C28            -7.1937127869       25.4177638340       -6.2263580246  MEMB      121             0.0000000000
     14956       121  OYPE      H8R            -7.6558105262       26.1994007757       -5.6672806178  MEMB      121             0.0000000000
     14957       121  OYPE      H8S            -6.2625210513       26.0187630879       -6.2940232042  MEMB      121             0.0000000000
     14958       121  OYPE      C29            -6.7700877757       24.0912433258       -5.9694829194  MEMB      121             0.0000000000
     14959       121  OYPE      H9R            -5.8108618048       24.4193093719       -6.6465638364  MEMB      121             0.0000000000
     14960       121  OYPE      C210           -6.6760096083       23.0985122639       -4.9260782925  MEMB      121             0.0000000000
     14961       121  OYPE      H10R           -5.8927497797       22.7681841847       -4.3313929982  MEMB      121             0.0000000000
     14962       121  OYPE      C211           -7.3955234285       22.7121628287       -3.7141901922  MEMB      121             0.0000000000
     14963       121  OYPE      H11R           -7.3045681203       21.6362028580       -3.8680690926  MEMB      121             0.0000000000
     14964       121  OYPE      H11S           -8.2401817951       23.2809033880       -3.9788392682  MEMB      121             0.0000000000
     14965       121  OYPE      C212           -6.7618803184       22.9395992377       -2.2541406591  MEMB      121             0.0000000000
     14966       121  OYPE      H12R           -6.5966524805       23.9457973780       -1.8112260641  MEMB      121             0.0000000000
     14967       121  OYPE      H12S           -5.6774294300       22.7900294131       -2.0728871099  MEMB      121             0.0000000000
     14968       121  OYPE      C213           -7.7638084616       22.6027580012       -1.3274233076  MEMB      121             0.0000000000
     14969       121  OYPE      H13R           -7.7003187310       21.5052771991       -1.4647786007  MEMB      121             0.0000000000
     14970       121  OYPE      H13S           -8.7223858599       23.0509096454       -1.5551629556  MEMB      121             0.0000000000
     14971       121  OYPE      C214           -7.3299648891       23.1206493128       -0.0519877575  MEMB      121             0.0000000000
     14972       121  OYPE      H14R           -6.2360698285       22.9090786109       -0.2082606706  MEMB      121             0.0000000000
     14973       121  OYPE      H14S           -8.0564458769       22.6170633831        0.6235420688  MEMB      121             0.0000000000
     14974       121  OYPE      C215           -6.9852314591       24.4004306370        0.6063930491  MEMB      121             0.0000000000
     14975       121  OYPE      H15R           -6.1381922199       24.9500227285        0.1403688865  MEMB      121             0.0000000000
     14976       121  OYPE      H15S           -6.8602996211       24.4894581275        1.7228252479  MEMB      121             0.0000000000
     14977       121  OYPE      C216           -8.2403749483       24.9308258173        0.5417956240  MEMB      121             0.0000000000
     14978       121  OYPE      H16R           -7.8336216887       25.9105533998        0.8433889296  MEMB      121             0.0000000000
     14979       121  OYPE      H16S           -9.1402584269       24.6273995642        1.0953802404  MEMB      121             0.0000000000
     14980       121  OYPE      H16T           -8.5637228502       24.9010913683       -0.4730853570  MEMB      121             0.0000000000
     14981       121  OYPE      C33            -7.2613942547       18.1286688142      -13.1654651666  MEMB      121             0.0000000000
     14982       121  OYPE      H3X            -7.2195284300       19.1626868938      -13.5665079358  MEMB      121             0.0000000000
     14983       121  OYPE      H3Y            -6.2046115885       17.8012226654      -13.0287523469  MEMB      121             0.0000000000
     14984       121  OYPE      C34            -7.9693223086       18.0708839551      -11.7844223096  MEMB      121             0.0000000000
     14985       121  OYPE      H4X            -9.0366832300       18.3657906369      -11.9003681173  MEMB      121             0.0000000000
     14986       121  OYPE      H4Y            -7.9301657115       17.0150137125      -11.4415343873  MEMB      121             0.0000000000
     14987       121  OYPE      C35            -7.3906667837       18.9153898725      -10.6222071568  MEMB      121             0.0000000000
     14988       121  OYPE      H5X            -7.4389400807       19.9878928316      -10.9158156561  MEMB      121             0.0000000000
     14989       121  OYPE      H5Y            -6.3151787031       18.6725542125      -10.4670902905  MEMB      121             0.0000000000
     14990       121  OYPE      C36            -8.1485847502       18.7008307353       -9.2783694314  MEMB      121             0.0000000000
     14991       121  OYPE      H6X            -9.2321389993       18.9054996095       -9.3869191793  MEMB      121             0.0000000000
     14992       121  OYPE      H6Y            -8.0571095777       17.6511086592       -8.9181642348  MEMB      121             0.0000000000
     14993       121  OYPE      C37            -7.6348040201       19.6178296928       -8.1628570168  MEMB      121             0.0000000000
     14994       121  OYPE      H7X            -6.5434975975       19.4098073815       -8.1370498130  MEMB      121             0.0000000000
     14995       121  OYPE      H7Y            -7.7820936641       20.6731603094       -8.4634674084  MEMB      121             0.0000000000
     14996       121  OYPE      C38            -8.2654090304       19.4052485901       -6.7616107641  MEMB      121             0.0000000000
     14997       121  OYPE      H8X            -7.9659637183       18.3903826626       -6.4175715051  MEMB      121             0.0000000000
     14998       121  OYPE      H8Y            -7.8141498755       20.1230756385       -6.0386242282  MEMB      121             0.0000000000
     14999       121  OYPE      C39            -9.7675553424       19.5463783388       -6.7258461279  MEMB      121             0.0000000000
     15000       121  OYPE      H9X           -10.3072514028       18.9978745021       -7.5112659463  MEMB      121             0.0000000000
     15001       121  OYPE      C310          -10.4939417895       20.2819734221       -5.8637782076  MEMB      121             0.0000000000
     15002       121  OYPE      H10X          -11.5876923986       20.2286372712       -5.9282226934  MEMB      121             0.0000000000
     15003       121  OYPE      C311           -9.9940030130       21.1362108769       -4.7331581563  MEMB      121             0.0000000000
     15004       121  OYPE      H11X           -9.3013683936       21.9058259905       -5.1327836737  MEMB      121             0.0000000000
     15005       121  OYPE      H11Y          -10.8322115967       21.7134307795       -4.2848983175  MEMB      121             0.0000000000
     15006       121  OYPE      C312           -9.3090449668       20.3468236241       -3.6010897432  MEMB      121             0.0000000000
     15007       121  OYPE      H12X           -9.0545076045       21.0777872245       -2.8130576608  MEMB      121             0.0000000000
     15008       121  OYPE      H12Y           -8.3590901403       19.8919750020       -3.9602223690  MEMB      121             0.0000000000
     15009       121  OYPE      C313          -10.1507029509       19.2556338248       -2.9520948486  MEMB      121             0.0000000000
     15010       121  OYPE      H13X          -11.1664602277       19.6467434415       -2.7480175409  MEMB      121             0.0000000000
     15011       121  OYPE      H13Y          -10.2169022578       18.4063892826       -3.6688889564  MEMB      121             0.0000000000
     15012       121  OYPE      C314           -9.5727960664       18.7385330842       -1.6319980466  MEMB      121             0.0000000000
     15013       121  OYPE      H14X          -10.2610755270       17.9603996376       -1.2446294088  MEMB      121             0.0000000000
     15014       121  OYPE      H14Y           -9.5354922005       19.5632576881       -0.8851785130  MEMB      121             0.0000000000
     15015       121  OYPE      C315           -8.1996921281       18.1424179874       -1.8551271104  MEMB      121             0.0000000000
     15016       121  OYPE      H15X           -7.4983366976       18.9610031500       -2.1680785972  MEMB      121             0.0000000000
     15017       121  OYPE      H15Y           -8.1969466510       17.3961636945       -2.6696151628  MEMB      121             0.0000000000
     15018       121  OYPE      C316           -7.5850216037       17.4060857712       -0.7071396252  MEMB      121             0.0000000000
     15019       121  OYPE      H16X           -7.7434842475       16.3201426920       -0.6106931828  MEMB      121             0.0000000000
     15020       121  OYPE      H16Y           -7.8302307417       17.8855156574        0.2757500534  MEMB      121             0.0000000000
     15021       121  OYPE      C317           -6.1490333616       17.5910028247       -1.0734480534  MEMB      121             0.0000000000
     15022       121  OYPE      H17X           -5.7334259032       17.0084503804       -0.3461441907  MEMB      121             0.0000000000
     15023       121  OYPE      H17Y           -5.9415746853       18.6651874756       -1.1070156425  MEMB      121             0.0000000000
     15024       121  OYPE      C318           -5.1933140675       16.8940847400       -1.9754633411  MEMB      121             0.0000000000
     15025       121  OYPE      H18X           -4.9267336897       15.8708032622       -1.6060109367  MEMB      121             0.0000000000
     15026       121  OYPE      H18Y           -5.6426473219       16.9793620184       -2.9538355486  MEMB      121             0.0000000000
     15027       121  OYPE      H18Z           -4.2563237299       17.4652657030       -1.9234362804  MEMB      121             0.0000000000
     15028       122  PVCL2     C3             16.7734120102       11.3720999871      -20.1054350100  MEMB      122             0.0000000000
     15029       122  PVCL2     HG31           17.4238576773       11.2832505923      -19.2017499427  MEMB      122             0.0000000000
     15030       122  PVCL2     HG32           17.2043275777       10.6984765855      -20.8894408391  MEMB      122             0.0000000000
     15031       122  PVCL2     P3             18.0357555415       13.2889653583      -21.2458717456  MEMB      122             0.0000000000
     15032       122  PVCL2     OP33           17.5653268439       14.2257384552      -22.3019413817  MEMB      122             0.0000000000
     15033       122  PVCL2     OP34           18.8326048949       12.1670412263      -21.7536867329  MEMB      122             0.0000000000
     15034       122  PVCL2     OP31           16.6902942112       12.7506841046      -20.5286447886  MEMB      122             0.0000000000
     15035       122  PVCL2     OP32           18.8850767055       14.0988395920      -20.1753966481  MEMB      122             0.0000000000
     15036       122  PVCL2     C31            18.2316747320       14.8814635245      -19.1813075226  MEMB      122             0.0000000000
     15037       122  PVCL2     H31J           17.4975792589       15.5717503590      -19.6529970528  MEMB      122             0.0000000000
     15038       122  PVCL2     H31K           17.7261600977       14.2042130028      -18.4589492482  MEMB      122             0.0000000000
     15039       122  PVCL2     C2             15.4019769583       10.7585440444      -19.7266468500  MEMB      122             0.0000000000
     15040       122  PVCL2     HG22           14.9489052911       11.4055704387      -18.9499620279  MEMB      122             0.0000000000
     15041       122  PVCL2     OG12           14.5178795594       10.7742162748      -20.8555459031  MEMB      122             0.0000000000
     15042       122  PVCL2     HO12           13.6978185713       10.4036522831      -20.5192936179  MEMB      122             0.0000000000
     15043       122  PVCL2     C1             15.5939711434        9.3363039416      -19.1120549422  MEMB      122             0.0000000000
     15044       122  PVCL2     HG11           15.9606137582        8.6825696859      -19.9370344127  MEMB      122             0.0000000000
     15045       122  PVCL2     HG12           14.6407473338        8.8974904338      -18.7383406954  MEMB      122             0.0000000000
     15046       122  PVCL2     P1             17.2395039315        8.0169614233      -17.5732736433  MEMB      122             0.0000000000
     15047       122  PVCL2     OP13           16.8826895862        7.7996539141      -16.1662284948  MEMB      122             0.0000000000
     15048       122  PVCL2     OP14           16.9569564492        6.9433962386      -18.5551742697  MEMB      122             0.0000000000
     15049       122  PVCL2     OP11           16.5568641297        9.3891366417      -18.0458315689  MEMB      122             0.0000000000
     15050       122  PVCL2     OP12           18.7947527622        8.2424652262      -17.5231328215  MEMB      122             0.0000000000
     15051       122  PVCL2     C11            19.6101642773        8.7785133061      -18.5443244353  MEMB      122             0.0000000000
     15052       122  PVCL2     H11J           19.1325583176        9.6547138406      -19.0483032177  MEMB      122             0.0000000000
     15053       122  PVCL2     H11K           19.8156808542        7.9940259748      -19.3016140578  MEMB      122             0.0000000000
     15054       122  PVCL2     C12            20.9972031269        9.2025051785      -17.9871530369  MEMB      122             0.0000000000
     15055       122  PVCL2     H12J           21.8003097498        8.9015454764      -18.6972987151  MEMB      122             0.0000000000
     15056       122  PVCL2     O12            21.3046496534        8.6676206893      -16.6855676329  MEMB      122             0.0000000000
     15057       122  PVCL2     CA1            21.4955670129        7.3613139641      -16.5967745249  MEMB      122             0.0000000000
     15058       122  PVCL2     OA1            21.2686117235        6.5172567722      -17.4431074580  MEMB      122             0.0000000000
     15059       122  PVCL2     CA2            22.2928784835        7.0876550486      -15.3226007167  MEMB      122             0.0000000000
     15060       122  PVCL2     H2A            22.4987907935        6.0023162238      -15.2209754730  MEMB      122             0.0000000000
     15061       122  PVCL2     H2B            21.6896796246        7.4521422768      -14.4671258315  MEMB      122             0.0000000000
     15062       122  PVCL2     C13            21.0961513172       10.7443458596      -17.9231797746  MEMB      122             0.0000000000
     15063       122  PVCL2     H13J           20.8606349473       11.1433929026      -18.9390565015  MEMB      122             0.0000000000
     15064       122  PVCL2     H13K           22.1646466135       10.9941184617      -17.7244549889  MEMB      122             0.0000000000
     15065       122  PVCL2     O13            20.1682745225       11.2905632746      -16.9538644736  MEMB      122             0.0000000000
     15066       122  PVCL2     CB1            20.6459116354       11.3728078227      -15.7126283004  MEMB      122             0.0000000000
     15067       122  PVCL2     OB1            21.8096101785       11.2050524018      -15.4017000730  MEMB      122             0.0000000000
     15068       122  PVCL2     CB2            19.5347712326       11.6902727378      -14.7165430307  MEMB      122             0.0000000000
     15069       122  PVCL2     H2D            18.8464099869       12.3974131282      -15.2326948568  MEMB      122             0.0000000000
     15070       122  PVCL2     H2E            19.9399530611       12.1964610925      -13.8190876727  MEMB      122             0.0000000000
     15071       122  PVCL2     C32            19.2461444624       15.7350383701      -18.3706626213  MEMB      122             0.0000000000
     15072       122  PVCL2     H32J           19.7376583208       16.3935912224      -19.1355998526  MEMB      122             0.0000000000
     15073       122  PVCL2     O32            20.1643692973       14.8207711185      -17.7187639900  MEMB      122             0.0000000000
     15074       122  PVCL2     CC1            21.3614938855       15.3268818626      -17.5118910478  MEMB      122             0.0000000000
     15075       122  PVCL2     OC1            21.7396289466       16.3695014599      -17.9943216717  MEMB      122             0.0000000000
     15076       122  PVCL2     CC2            22.1862995659       14.3978663224      -16.6061818781  MEMB      122             0.0000000000
     15077       122  PVCL2     H2R            22.2667327262       13.4320853224      -17.1461677675  MEMB      122             0.0000000000
     15078       122  PVCL2     H2S            21.5964883390       14.2117254153      -15.6895488618  MEMB      122             0.0000000000
     15079       122  PVCL2     C33            18.5839416317       16.6703612416      -17.2923830281  MEMB      122             0.0000000000
     15080       122  PVCL2     H33J           19.4307142948       17.1496908724      -16.7443770269  MEMB      122             0.0000000000
     15081       122  PVCL2     H33K           18.0225868869       17.4756247036      -17.8166831459  MEMB      122             0.0000000000
     15082       122  PVCL2     O33            17.7064474590       15.9406907532      -16.3897043232  MEMB      122             0.0000000000
     15083       122  PVCL2     CD1            17.5533050485       16.4836508435      -15.1758650689  MEMB      122             0.0000000000
     15084       122  PVCL2     OD1            18.0053648071       17.5635317612      -14.8350063078  MEMB      122             0.0000000000
     15085       122  PVCL2     CD2            16.8388052639       15.5298797681      -14.2159094221  MEMB      122             0.0000000000
     15086       122  PVCL2     H2X            16.1502804859       14.8524746759      -14.7538250814  MEMB      122             0.0000000000
     15087       122  PVCL2     H2Y            16.2102358484       16.1501689941      -13.5395591643  MEMB      122             0.0000000000
     15088       122  PVCL2     CA3            23.6482124250        7.8205049950      -15.3342493533  MEMB      122             0.0000000000
     15089       122  PVCL2     H3A            23.5364108224        8.8123458417      -15.8193866417  MEMB      122             0.0000000000
     15090       122  PVCL2     H3B            24.4147002991        7.2246107207      -15.8933223782  MEMB      122             0.0000000000
     15091       122  PVCL2     CA4            24.1347707449        8.1071733992      -13.9290142862  MEMB      122             0.0000000000
     15092       122  PVCL2     H4A            23.4674368409        8.7814878892      -13.3607735300  MEMB      122             0.0000000000
     15093       122  PVCL2     H4B            25.1482366840        8.5829857342      -14.0015480036  MEMB      122             0.0000000000
     15094       122  PVCL2     CA5            24.2442448915        6.8522543518      -13.1061498580  MEMB      122             0.0000000000
     15095       122  PVCL2     H5A            24.7376093167        6.2011478739      -13.8549222230  MEMB      122             0.0000000000
     15096       122  PVCL2     H5B            23.3175398268        6.3098047884      -12.8605834368  MEMB      122             0.0000000000
     15097       122  PVCL2     CA6            24.9857097978        7.3270235668      -11.8645117354  MEMB      122             0.0000000000
     15098       122  PVCL2     H6A            25.8763389476        7.9066534682      -12.1816825345  MEMB      122             0.0000000000
     15099       122  PVCL2     H6B            25.3301475813        6.6172577720      -11.1477811788  MEMB      122             0.0000000000
     15100       122  PVCL2     CA7            24.2169517670        7.7426209564      -10.6288908002  MEMB      122             0.0000000000
     15101       122  PVCL2     H7A            23.6928984463        8.6066072295      -11.0366927506  MEMB      122             0.0000000000
     15102       122  PVCL2     H7B            24.9407783182        8.0216842582       -9.8165489844  MEMB      122             0.0000000000
     15103       122  PVCL2     CA8            23.2668496714        6.6921603867      -10.0082065434  MEMB      122             0.0000000000
     15104       122  PVCL2     H8A            22.6801821045        6.1138724487      -10.7509480365  MEMB      122             0.0000000000
     15105       122  PVCL2     H8B            22.5630546972        7.2961112409       -9.3918759269  MEMB      122             0.0000000000
     15106       122  PVCL2     CA9            23.8529393099        5.6778250667       -9.0096559531  MEMB      122             0.0000000000
     15107       122  PVCL2     H9A            24.4943356521        6.2457277398       -8.3085022708  MEMB      122             0.0000000000
     15108       122  PVCL2     H9B            24.5034034895        4.9587175272       -9.5602736307  MEMB      122             0.0000000000
     15109       122  PVCL2     CA10           22.6383624379        5.0171363094       -8.2793069700  MEMB      122             0.0000000000
     15110       122  PVCL2     H10A           22.0076050932        4.7116423619       -9.1192018050  MEMB      122             0.0000000000
     15111       122  PVCL2     H10B           22.1831157844        5.7246775209       -7.5747206964  MEMB      122             0.0000000000
     15112       122  PVCL2     CA11           22.4785534453        3.7130703849       -7.6280450649  MEMB      122             0.0000000000
     15113       122  PVCL2     H11A           23.3555989089        3.2088756631       -8.1301339245  MEMB      122             0.0000000000
     15114       122  PVCL2     CA12           22.0939883127        3.4474709319       -6.3045555465  MEMB      122             0.0000000000
     15115       122  PVCL2     H12A           22.5812164465        2.5815568098       -5.8364233393  MEMB      122             0.0000000000
     15116       122  PVCL2     CA13           21.7385289582        4.3222191663       -5.0769474182  MEMB      122             0.0000000000
     15117       122  PVCL2     H13A           21.9006656605        3.7748327289       -4.1046896243  MEMB      122             0.0000000000
     15118       122  PVCL2     H13B           20.6705706893        4.2159959890       -5.0604348179  MEMB      122             0.0000000000
     15119       122  PVCL2     CA14           22.4236077704        5.7217598706       -4.6354547356  MEMB      122             0.0000000000
     15120       122  PVCL2     H14A           21.8005935612        6.4583854152       -5.1457874151  MEMB      122             0.0000000000
     15121       122  PVCL2     H14B           23.4660931017        5.9418108067       -4.9608620221  MEMB      122             0.0000000000
     15122       122  PVCL2     CA15           22.6655852948        6.0509057132       -3.1188944481  MEMB      122             0.0000000000
     15123       122  PVCL2     H15A           23.2282602139        7.0131283529       -2.9862416302  MEMB      122             0.0000000000
     15124       122  PVCL2     H15B           23.3249111136        5.2880851955       -2.6409566821  MEMB      122             0.0000000000
     15125       122  PVCL2     CA16           21.3503270779        6.1847607316       -2.3808627722  MEMB      122             0.0000000000
     15126       122  PVCL2     H16A           20.7273871656        5.3013486971       -2.6469210551  MEMB      122             0.0000000000
     15127       122  PVCL2     H16B           20.8379623198        7.1102966326       -2.7210186356  MEMB      122             0.0000000000
     15128       122  PVCL2     CA17           21.4671883392        6.2589090784       -0.8712573004  MEMB      122             0.0000000000
     15129       122  PVCL2     H17A           21.9707205936        7.1904961369       -0.5476474955  MEMB      122             0.0000000000
     15130       122  PVCL2     H17B           22.0729266129        5.3911291938       -0.5348374748  MEMB      122             0.0000000000
     15131       122  PVCL2     CA18           20.0973788370        6.1596899504       -0.2361889347  MEMB      122             0.0000000000
     15132       122  PVCL2     H18A           19.4244468931        7.0065841048       -0.4602730654  MEMB      122             0.0000000000
     15133       122  PVCL2     H18B           20.1938192640        5.9766611575        0.8568608494  MEMB      122             0.0000000000
     15134       122  PVCL2     H18C           19.5935604842        5.2707995607       -0.6689845938  MEMB      122             0.0000000000
     15135       122  PVCL2     CB3            18.8102033945       10.3889571597      -14.2810125057  MEMB      122             0.0000000000
     15136       122  PVCL2     H3D            18.6198082765        9.7719279237      -15.1892992048  MEMB      122             0.0000000000
     15137       122  PVCL2     H3E            17.8262402265       10.6721646476      -13.8393227558  MEMB      122             0.0000000000
     15138       122  PVCL2     CB4            19.5234003863        9.4562596012      -13.2726727151  MEMB      122             0.0000000000
     15139       122  PVCL2     H4D            19.3669323857        9.8695626171      -12.2531804511  MEMB      122             0.0000000000
     15140       122  PVCL2     H4E            20.6205276540        9.4191151123      -13.4476414201  MEMB      122             0.0000000000
     15141       122  PVCL2     CB5            18.9768228621        8.0084634916      -13.3495669028  MEMB      122             0.0000000000
     15142       122  PVCL2     H5D            19.3726519033        7.4822842166      -14.2518720344  MEMB      122             0.0000000000
     15143       122  PVCL2     H5E            17.8721413669        8.0349993104      -13.4891624051  MEMB      122             0.0000000000
     15144       122  PVCL2     CB6            19.2896945875        7.1435120978      -12.1229960212  MEMB      122             0.0000000000
     15145       122  PVCL2     H6D            20.3921777937        7.0143877669      -12.0390201897  MEMB      122             0.0000000000
     15146       122  PVCL2     H6E            18.8547960980        6.1329898373      -12.3148292501  MEMB      122             0.0000000000
     15147       122  PVCL2     CB7            18.7124349325        7.6950108715      -10.8095750788  MEMB      122             0.0000000000
     15148       122  PVCL2     H7D            17.7265909897        8.1846016056      -10.9242758883  MEMB      122             0.0000000000
     15149       122  PVCL2     H7E            19.4371148591        8.3989791375      -10.3433883952  MEMB      122             0.0000000000
     15150       122  PVCL2     CB8            18.4197771488        6.6000272594       -9.8303352623  MEMB      122             0.0000000000
     15151       122  PVCL2     H8D            19.4323162714        6.2995897210       -9.4907556912  MEMB      122             0.0000000000
     15152       122  PVCL2     H8E            17.8853781452        5.7548349927      -10.3360992913  MEMB      122             0.0000000000
     15153       122  PVCL2     CB9            17.6111635584        7.0158646402       -8.6048226153  MEMB      122             0.0000000000
     15154       122  PVCL2     H9D            17.3583102224        6.0861707335       -8.1339890339  MEMB      122             0.0000000000
     15155       122  PVCL2     H9E            16.5922878768        7.3305538076       -8.8539163519  MEMB      122             0.0000000000
     15156       122  PVCL2     CB10           18.4300153377        7.7765569555       -7.5357418799  MEMB      122             0.0000000000
     15157       122  PVCL2     H10D           18.8813649252        8.6629473498       -8.0022209081  MEMB      122             0.0000000000
     15158       122  PVCL2     H10E           19.2722965986        7.1279869996       -7.1864493461  MEMB      122             0.0000000000
     15159       122  PVCL2     CB11           17.6769837604        8.1769677193       -6.2576278994  MEMB      122             0.0000000000
     15160       122  PVCL2     H11D           17.8724951128        7.4469926795       -5.4455538738  MEMB      122             0.0000000000
     15161       122  PVCL2     H11E           16.5840650577        8.2775384555       -6.4207784176  MEMB      122             0.0000000000
     15162       122  PVCL2     CB12           18.3530408054        9.2133500711       -5.4302451165  MEMB      122             0.0000000000
     15163       122  PVCL2     H12D           18.1424153695       10.1417054570       -5.9799652899  MEMB      122             0.0000000000
     15164       122  PVCL2     H12E           19.4368852603        8.9264954518       -5.4238377907  MEMB      122             0.0000000000
     15165       122  PVCL2     CB13           17.9052550308        9.1946448645       -3.9589125708  MEMB      122             0.0000000000
     15166       122  PVCL2     H13D           18.3180275949       10.1129292563       -3.5041717364  MEMB      122             0.0000000000
     15167       122  PVCL2     H13E           18.3675408014        8.3110086578       -3.4472442821  MEMB      122             0.0000000000
     15168       122  PVCL2     CB14           16.3947667990        9.1668759310       -3.7287273370  MEMB      122             0.0000000000
     15169       122  PVCL2     H14D           16.0407558135        8.1470695179       -3.6055327036  MEMB      122             0.0000000000
     15170       122  PVCL2     H14E           15.8030981220        9.6034355414       -4.5564277469  MEMB      122             0.0000000000
     15171       122  PVCL2     CB15           15.9299217345        9.6580511739       -2.3720117119  MEMB      122             0.0000000000
     15172       122  PVCL2     H15D           14.8478704699        9.4442287173       -2.4126622550  MEMB      122             0.0000000000
     15173       122  PVCL2     H15E           16.0858628928       10.7365617841       -2.2710067794  MEMB      122             0.0000000000
     15174       122  PVCL2     CB16           16.5517507082        8.9167147382       -1.2004013331  MEMB      122             0.0000000000
     15175       122  PVCL2     H16D           16.7330787285        7.8987987054       -1.5678087130  MEMB      122             0.0000000000
     15176       122  PVCL2     H16E           15.8721190225        8.8881080254       -0.3192883429  MEMB      122             0.0000000000
     15177       122  PVCL2     H16F           17.5340970779        9.3328393642       -0.9080223244  MEMB      122             0.0000000000
     15178       122  PVCL2     CC3            23.6324367372       14.8825139641      -16.2730340100  MEMB      122             0.0000000000
     15179       122  PVCL2     H3R            23.8541281972       15.7898886212      -16.8833296263  MEMB      122             0.0000000000
     15180       122  PVCL2     H3S            24.3428988545       14.1015322817      -16.6179117673  MEMB      122             0.0000000000
     15181       122  PVCL2     CC4            23.9217946605       15.2312339772      -14.7812445706  MEMB      122             0.0000000000
     15182       122  PVCL2     H4R            22.9941224313       15.2742207237      -14.1802867191  MEMB      122             0.0000000000
     15183       122  PVCL2     H4S            24.3876396941       16.2339961460      -14.7741369083  MEMB      122             0.0000000000
     15184       122  PVCL2     CC5            25.0423858107       14.4992460414      -14.0225734986  MEMB      122             0.0000000000
     15185       122  PVCL2     H5R            25.3936408079       15.1150381354      -13.1592298643  MEMB      122             0.0000000000
     15186       122  PVCL2     H5S            25.9290318747       14.4286554811      -14.6962853874  MEMB      122             0.0000000000
     15187       122  PVCL2     CC6            24.6240383993       13.1397470311      -13.4631855226  MEMB      122             0.0000000000
     15188       122  PVCL2     H6R            25.5318837115       12.6671889214      -13.0262619136  MEMB      122             0.0000000000
     15189       122  PVCL2     H6S            24.2563804278       12.5377791164      -14.3235808503  MEMB      122             0.0000000000
     15190       122  PVCL2     CC7            23.5399080062       13.0764346830      -12.3683999432  MEMB      122             0.0000000000
     15191       122  PVCL2     H7R            22.5515624137       13.3114564169      -12.8231685454  MEMB      122             0.0000000000
     15192       122  PVCL2     H7S            23.7343644892       13.7911947520      -11.5392450800  MEMB      122             0.0000000000
     15193       122  PVCL2     CC8            23.4613647507       11.6474898634      -11.8012977291  MEMB      122             0.0000000000
     15194       122  PVCL2     H8R            24.4360985398       11.3529448596      -11.3499716541  MEMB      122             0.0000000000
     15195       122  PVCL2     H8S            23.2487508971       10.9733729433      -12.6666988944  MEMB      122             0.0000000000
     15196       122  PVCL2     CC9            22.3436524190       11.4264929809      -10.7766677533  MEMB      122             0.0000000000
     15197       122  PVCL2     H9R            22.3130582532       10.3365462850      -10.5323305273  MEMB      122             0.0000000000
     15198       122  PVCL2     H9S            21.3853912232       11.7385668480      -11.2477697392  MEMB      122             0.0000000000
     15199       122  PVCL2     CC10           22.5094566706       12.1818732511       -9.4551540715  MEMB      122             0.0000000000
     15200       122  PVCL2     H10R           22.6251196170       13.2673609672       -9.6631776128  MEMB      122             0.0000000000
     15201       122  PVCL2     H10S           23.4560346610       11.8394857730       -8.9769025645  MEMB      122             0.0000000000
     15202       122  PVCL2     CC11           21.3048995125       11.9038895680       -8.5831695601  MEMB      122             0.0000000000
     15203       122  PVCL2     H11R           20.4024894891       12.4890565117       -8.8183241106  MEMB      122             0.0000000000
     15204       122  PVCL2     CC12           21.2141595762       10.9155954865       -7.6740680501  MEMB      122             0.0000000000
     15205       122  PVCL2     H12R           20.2593995846       10.7865203944       -7.1362260040  MEMB      122             0.0000000000
     15206       122  PVCL2     CC13           22.3228361390        9.9231697057       -7.3941921384  MEMB      122             0.0000000000
     15207       122  PVCL2     H13R           22.9609155454        9.8505059715       -8.3022786002  MEMB      122             0.0000000000
     15208       122  PVCL2     H13S           21.9281242442        8.8948830745       -7.2319342039  MEMB      122             0.0000000000
     15209       122  PVCL2     CC14           23.2916496144       10.2256955084       -6.2397927187  MEMB      122             0.0000000000
     15210       122  PVCL2     H14R           22.7684867730       10.3882947491       -5.2700370888  MEMB      122             0.0000000000
     15211       122  PVCL2     H14S           23.8912036474       11.1361787850       -6.4694571243  MEMB      122             0.0000000000
     15212       122  PVCL2     CC15           24.2805331841        9.0774349016       -6.0377719160  MEMB      122             0.0000000000
     15213       122  PVCL2     H15R           24.7233386965        8.7752236453       -7.0129730413  MEMB      122             0.0000000000
     15214       122  PVCL2     H15S           23.7309932256        8.1832036002       -5.6644812210  MEMB      122             0.0000000000
     15215       122  PVCL2     CC16           25.3130852728        9.4758985461       -4.9731233692  MEMB      122             0.0000000000
     15216       122  PVCL2     H16R           25.5198557162        8.5618050151       -4.3757528973  MEMB      122             0.0000000000
     15217       122  PVCL2     H16S           24.8433211220       10.2010760847       -4.2727136201  MEMB      122             0.0000000000
     15218       122  PVCL2     CC17           26.6206749578       10.0550998876       -5.5307119805  MEMB      122             0.0000000000
     15219       122  PVCL2     H17R           27.1933901300       10.5800314678       -4.7296445517  MEMB      122             0.0000000000
     15220       122  PVCL2     H17S           26.4243537304       10.8143280488       -6.3236917958  MEMB      122             0.0000000000
     15221       122  PVCL2     CC18           27.5047914143        8.9384146663       -6.0631547199  MEMB      122             0.0000000000
     15222       122  PVCL2     H18R           28.3303568591        9.3318049935       -6.6706925540  MEMB      122             0.0000000000
     15223       122  PVCL2     H18S           26.9246542177        8.2471574336       -6.7090789803  MEMB      122             0.0000000000
     15224       122  PVCL2     H18T           27.9499820674        8.3801386507       -5.2137474632  MEMB      122             0.0000000000
     15225       122  PVCL2     CD3            17.9197023378       14.7698272229      -13.4041223712  MEMB      122             0.0000000000
     15226       122  PVCL2     H3X            18.6118131664       15.5277234791      -12.9660452966  MEMB      122             0.0000000000
     15227       122  PVCL2     H3Y            18.5610426710       14.1849745318      -14.0968429764  MEMB      122             0.0000000000
     15228       122  PVCL2     CD4            17.4158527607       13.8373021301      -12.2734959265  MEMB      122             0.0000000000
     15229       122  PVCL2     H4X            17.8557133854       14.2064906046      -11.3171794357  MEMB      122             0.0000000000
     15230       122  PVCL2     H4Y            17.7771226583       12.7989073113      -12.4435912790  MEMB      122             0.0000000000
     15231       122  PVCL2     CD5            15.8978528331       13.8377891057      -12.0340297568  MEMB      122             0.0000000000
     15232       122  PVCL2     H5X            15.3483193954       13.7542061229      -13.0010581763  MEMB      122             0.0000000000
     15233       122  PVCL2     H5Y            15.6682959634       14.8066413020      -11.5432785504  MEMB      122             0.0000000000
     15234       122  PVCL2     CD6            15.3246346394       12.7262323453      -11.1358810872  MEMB      122             0.0000000000
     15235       122  PVCL2     H6X            15.5664518496       11.7444619096      -11.6025274325  MEMB      122             0.0000000000
     15236       122  PVCL2     H6Y            14.2163663492       12.8586275690      -11.1509997432  MEMB      122             0.0000000000
     15237       122  PVCL2     CD7            15.7700686180       12.7128583914       -9.6606650455  MEMB      122             0.0000000000
     15238       122  PVCL2     H7X            16.8739034613       12.7845492155       -9.5815262045  MEMB      122             0.0000000000
     15239       122  PVCL2     H7Y            15.4732417622       11.7240237233       -9.2393273125  MEMB      122             0.0000000000
     15240       122  PVCL2     CD8            15.1447071487       13.8111987592       -8.7769489826  MEMB      122             0.0000000000
     15241       122  PVCL2     H8X            14.1658662288       14.1210052650       -9.2082880492  MEMB      122             0.0000000000
     15242       122  PVCL2     H8Y            15.8018431831       14.7068064955       -8.8276561082  MEMB      122             0.0000000000
     15243       122  PVCL2     CD9            14.9863897280       13.3891486599       -7.2963496012  MEMB      122             0.0000000000
     15244       122  PVCL2     H9X            14.2152531113       12.5876163543       -7.2032491394  MEMB      122             0.0000000000
     15245       122  PVCL2     H9Y            14.6325286235       14.2584109848       -6.6984778123  MEMB      122             0.0000000000
     15246       122  PVCL2     CD10           16.2648833229       12.8156695601       -6.6515318397  MEMB      122             0.0000000000
     15247       122  PVCL2     H10X           16.5415258498       11.8937858198       -7.2083047553  MEMB      122             0.0000000000
     15248       122  PVCL2     H10Y           16.0429090451       12.5228986055       -5.6013531137  MEMB      122             0.0000000000
     15249       122  PVCL2     CD11           17.4650840064       13.7764301981       -6.6017930143  MEMB      122             0.0000000000
     15250       122  PVCL2     H11X           17.0755924271       14.7918324242       -6.3637212898  MEMB      122             0.0000000000
     15251       122  PVCL2     H11Y           17.9005287701       13.8083411853       -7.6254910797  MEMB      122             0.0000000000
     15252       122  PVCL2     CD12           18.5365588278       13.3338835517       -5.5677201765  MEMB      122             0.0000000000
     15253       122  PVCL2     H12X           18.8980911197       12.3266841289       -5.8626423729  MEMB      122             0.0000000000
     15254       122  PVCL2     H12Y           18.0864340288       13.2269002329       -4.5559856174  MEMB      122             0.0000000000
     15255       122  PVCL2     CD13           19.7341380280       14.2933877433       -5.4045003560  MEMB      122             0.0000000000
     15256       122  PVCL2     H13X           19.3272948298       15.3226594604       -5.5369761877  MEMB      122             0.0000000000
     15257       122  PVCL2     H13Y           20.4858805841       14.0840352631       -6.1972724557  MEMB      122             0.0000000000
     15258       122  PVCL2     CD14           20.4082162331       14.2831567324       -4.0109910020  MEMB      122             0.0000000000
     15259       122  PVCL2     H14X           19.6251228721       14.4394662913       -3.2386300527  MEMB      122             0.0000000000
     15260       122  PVCL2     H14Y           21.0761180614       15.1740573299       -3.9267139352  MEMB      122             0.0000000000
     15261       122  PVCL2     CD15           21.2103131668       13.0101884075       -3.6695058221  MEMB      122             0.0000000000
     15262       122  PVCL2     H15X           22.1915568489       13.0810813971       -4.1973963337  MEMB      122             0.0000000000
     15263       122  PVCL2     H15Y           20.7185803767       12.0840434793       -4.0310714429  MEMB      122             0.0000000000
     15264       122  PVCL2     CD16           21.3817289093       12.8122894754       -2.1658229270  MEMB      122             0.0000000000
     15265       122  PVCL2     H16X           20.4329037173       12.9956526560       -1.6157669873  MEMB      122             0.0000000000
     15266       122  PVCL2     H16Y           22.1400568954       13.5303727453       -1.7948728620  MEMB      122             0.0000000000
     15267       122  PVCL2     H16Z           21.6936953046       11.7807252431       -1.8881778322  MEMB      122             0.0000000000
     15268       123  PMPE      N             -19.7363944108        6.3309061873      -21.0373239686  MEMB      123             0.0000000000
     15269       123  PMPE      HN1           -20.3677590556        5.6014238345      -20.6429340785  MEMB      123             0.0000000000
     15270       123  PMPE      HN2           -20.2702458693        6.9093709104      -21.7124746696  MEMB      123             0.0000000000
     15271       123  PMPE      HN3           -18.9379822211        5.8792755660      -21.5323290203  MEMB      123             0.0000000000
     15272       123  PMPE      C12           -19.3212489321        7.1940111003      -19.8643811746  MEMB      123             0.0000000000
     15273       123  PMPE      H12A          -18.3432129104        7.6489636410      -20.0558512902  MEMB      123             0.0000000000
     15274       123  PMPE      H12B          -19.1754963334        6.5345428806      -18.9880941016  MEMB      123             0.0000000000
     15275       123  PMPE      C11           -20.4437416181        8.2036179842      -19.5719366187  MEMB      123             0.0000000000
     15276       123  PMPE      H11A          -21.3709593854        7.6103365707      -19.4116161514  MEMB      123             0.0000000000
     15277       123  PMPE      H11B          -20.6276807850        8.8911325167      -20.4250570943  MEMB      123             0.0000000000
     15278       123  PMPE      P             -19.6195871584       10.3975216620      -18.3847580615  MEMB      123             0.0000000000
     15279       123  PMPE      O13           -20.6788922856       11.2976836107      -18.9157538007  MEMB      123             0.0000000000
     15280       123  PMPE      O14           -18.3843584522       10.3166771806      -19.1753920248  MEMB      123             0.0000000000
     15281       123  PMPE      O11           -19.3828711066       10.5924393371      -16.8407745010  MEMB      123             0.0000000000
     15282       123  PMPE      O12           -20.2058421744        8.9282248574      -18.3814216597  MEMB      123             0.0000000000
     15283       123  PMPE      C1            -20.5229362916       10.2603122454      -16.0395219450  MEMB      123             0.0000000000
     15284       123  PMPE      HA            -20.8475265412        9.1971605602      -16.1661766449  MEMB      123             0.0000000000
     15285       123  PMPE      HB            -21.3973176023       10.9062636244      -16.2594642205  MEMB      123             0.0000000000
     15286       123  PMPE      C2            -20.0963420712       10.4018783365      -14.5948625960  MEMB      123             0.0000000000
     15287       123  PMPE      HS            -20.8776165350        9.9172315746      -13.9503317186  MEMB      123             0.0000000000
     15288       123  PMPE      O21           -19.8567169560       11.7083593984      -14.1907630720  MEMB      123             0.0000000000
     15289       123  PMPE      C21           -20.8270611079       12.5137256792      -14.3091489045  MEMB      123             0.0000000000
     15290       123  PMPE      O22           -22.0093917746       12.2836745889      -14.4786537803  MEMB      123             0.0000000000
     15291       123  PMPE      C22           -20.2668958681       13.7779311429      -13.8859085424  MEMB      123             0.0000000000
     15292       123  PMPE      H2R           -21.0012474276       14.5732461498      -14.0231615600  MEMB      123             0.0000000000
     15293       123  PMPE      H2S           -19.3332640471       14.0260641368      -14.4728856086  MEMB      123             0.0000000000
     15294       123  PMPE      C3            -18.8025818528        9.7262534949      -14.3616928537  MEMB      123             0.0000000000
     15295       123  PMPE      HX            -17.8608124081       10.1474899290      -14.7675533243  MEMB      123             0.0000000000
     15296       123  PMPE      HY            -19.0188384392        8.7922777057      -14.9506107426  MEMB      123             0.0000000000
     15297       123  PMPE      O31           -18.7458995615        9.6078900189      -12.9454132938  MEMB      123             0.0000000000
     15298       123  PMPE      C31           -18.0771830834       10.4440142687      -12.1160151334  MEMB      123             0.0000000000
     15299       123  PMPE      O32           -17.5123730540       11.4618933145      -12.4107975674  MEMB      123             0.0000000000
     15300       123  PMPE      C32           -17.9831717391        9.8289476690      -10.7105967634  MEMB      123             0.0000000000
     15301       123  PMPE      H2X           -17.3965847508       10.2745785780       -9.9000823999  MEMB      123             0.0000000000
     15302       123  PMPE      H2Y           -17.1129124884        9.2109977515      -10.9399618489  MEMB      123             0.0000000000
     15303       123  PMPE      C23           -19.9639281641       13.5188276635      -12.3909417282  MEMB      123             0.0000000000
     15304       123  PMPE      H3R           -19.1245182772       14.1449116608      -12.5557897982  MEMB      123             0.0000000000
     15305       123  PMPE      H3S           -19.1734743550       12.8705568466      -12.0387831691  MEMB      123             0.0000000000
     15306       123  PMPE      C24           -21.0483441099       13.8735711200      -11.2828606971  MEMB      123             0.0000000000
     15307       123  PMPE      H4R           -21.6401692309       12.9493069305      -11.3117713159  MEMB      123             0.0000000000
     15308       123  PMPE      H4S           -21.6402552029       14.7430170850      -11.6530226746  MEMB      123             0.0000000000
     15309       123  PMPE      C25           -20.7620730351       14.0780711007       -9.7154908699  MEMB      123             0.0000000000
     15310       123  PMPE      H5R           -21.6644225329       14.3363378371       -9.1425954451  MEMB      123             0.0000000000
     15311       123  PMPE      H5S           -20.3789411282       15.0094398829       -9.2832408144  MEMB      123             0.0000000000
     15312       123  PMPE      C26           -19.6300604414       13.2175617875       -9.1669928980  MEMB      123             0.0000000000
     15313       123  PMPE      H6R           -18.6012901361       13.3628755475       -9.5930583874  MEMB      123             0.0000000000
     15314       123  PMPE      H6S           -19.9329740213       12.2103735220       -9.4759685838  MEMB      123             0.0000000000
     15315       123  PMPE      C27           -19.4779893997       13.4392155464       -7.6743269610  MEMB      123             0.0000000000
     15316       123  PMPE      H7R           -20.5039550926       13.4452940885       -7.2550693865  MEMB      123             0.0000000000
     15317       123  PMPE      H7S           -19.0534358586       14.4264840993       -7.3637734955  MEMB      123             0.0000000000
     15318       123  PMPE      C28           -18.6504717624       12.3088814490       -7.1134628618  MEMB      123             0.0000000000
     15319       123  PMPE      H8R           -17.5706381800       12.5634424898       -7.2068736795  MEMB      123             0.0000000000
     15320       123  PMPE      H8S           -18.8096373485       11.3684838145       -7.6952666530  MEMB      123             0.0000000000
     15321       123  PMPE      C29           -19.1562384622       12.1504472781       -5.6983215830  MEMB      123             0.0000000000
     15322       123  PMPE      H9R           -20.2155407075       11.8981794846       -5.5289700945  MEMB      123             0.0000000000
     15323       123  PMPE      C217          -18.3957293221       12.9312829648       -4.6374279945  MEMB      123             0.0000000000
     15324       123  PMPE      H17R          -18.9906527554       13.2091232108       -3.7796756306  MEMB      123             0.0000000000
     15325       123  PMPE      H17S          -17.5374463377       13.4647141934       -5.0163796270  MEMB      123             0.0000000000
     15326       123  PMPE      C210          -18.2864215281       11.4321366860       -4.7526018395  MEMB      123             0.0000000000
     15327       123  PMPE      H10R          -18.8800772126       10.8670947891       -3.9991415826  MEMB      123             0.0000000000
     15328       123  PMPE      C211          -17.0653937640       10.8327208914       -5.4157616685  MEMB      123             0.0000000000
     15329       123  PMPE      H11R          -16.1870976671       11.4902112104       -5.4876416752  MEMB      123             0.0000000000
     15330       123  PMPE      H11S          -17.2996110860       10.3312290873       -6.3907588161  MEMB      123             0.0000000000
     15331       123  PMPE      C212          -16.7157616477        9.7557473046       -4.4698381913  MEMB      123             0.0000000000
     15332       123  PMPE      H12R          -15.8819090717        9.1477458130       -4.9011130962  MEMB      123             0.0000000000
     15333       123  PMPE      H12S          -17.7279528687        9.2910331903       -4.5873529878  MEMB      123             0.0000000000
     15334       123  PMPE      C213          -16.5434787175       10.1984191916       -3.0150089864  MEMB      123             0.0000000000
     15335       123  PMPE      H13R          -17.4855228190       10.5361977247       -2.5834916235  MEMB      123             0.0000000000
     15336       123  PMPE      H13S          -15.6704112287       10.8971562334       -3.1324303694  MEMB      123             0.0000000000
     15337       123  PMPE      C214          -16.2233735736        9.3057850713       -1.8132846729  MEMB      123             0.0000000000
     15338       123  PMPE      H14R          -15.6488649882        9.7398697789       -0.9963150867  MEMB      123             0.0000000000
     15339       123  PMPE      H14S          -15.2957878022        9.0976596430       -2.4365045571  MEMB      123             0.0000000000
     15340       123  PMPE      C215          -17.2717842409        8.1137860478       -1.2445478659  MEMB      123             0.0000000000
     15341       123  PMPE      H15R          -17.7876677744        7.6337736824       -2.1135736650  MEMB      123             0.0000000000
     15342       123  PMPE      H15S          -18.0532986425        8.5870167445       -0.7498563985  MEMB      123             0.0000000000
     15343       123  PMPE      C216          -16.9299410529        6.9032534090       -0.1895328442  MEMB      123             0.0000000000
     15344       123  PMPE      H16R          -16.3339140149        7.2475809292        0.6506686478  MEMB      123             0.0000000000
     15345       123  PMPE      H16S          -17.5948412034        6.0550714015       -0.0809805833  MEMB      123             0.0000000000
     15346       123  PMPE      H16T          -16.3070904612        6.0334585348       -0.4762181477  MEMB      123             0.0000000000
     15347       123  PMPE      C33           -19.3795023502        9.1669895501      -10.3713779404  MEMB      123             0.0000000000
     15348       123  PMPE      H3X           -19.7976245270        8.4892502012      -11.1454411030  MEMB      123             0.0000000000
     15349       123  PMPE      H3Y           -20.0266698031       10.0257690237      -10.1689188126  MEMB      123             0.0000000000
     15350       123  PMPE      C34           -19.4995988856        8.2702833035       -9.1698366382  MEMB      123             0.0000000000
     15351       123  PMPE      H4X           -18.6827461816        8.7834193963       -8.6496849916  MEMB      123             0.0000000000
     15352       123  PMPE      H4Y           -19.2236904454        7.2184733551       -9.2791693439  MEMB      123             0.0000000000
     15353       123  PMPE      C35           -20.8646902098        7.8528857982       -8.6698176384  MEMB      123             0.0000000000
     15354       123  PMPE      H5X           -21.2552717801        7.3727911772       -9.6102882792  MEMB      123             0.0000000000
     15355       123  PMPE      H5Y           -21.2616339658        8.7985286845       -8.3093322753  MEMB      123             0.0000000000
     15356       123  PMPE      C36           -20.9896716890        6.7535174225       -7.5932725921  MEMB      123             0.0000000000
     15357       123  PMPE      H6X           -20.2408933685        6.0249831525       -8.0039898983  MEMB      123             0.0000000000
     15358       123  PMPE      H6Y           -21.8567049224        6.1107837510       -7.6145903042  MEMB      123             0.0000000000
     15359       123  PMPE      C37           -20.9689571591        7.2203902340       -6.0944828279  MEMB      123             0.0000000000
     15360       123  PMPE      H7X           -20.6021936850        8.2300690030       -5.8722450668  MEMB      123             0.0000000000
     15361       123  PMPE      H7Y           -20.3912038744        6.5367901891       -5.4556479671  MEMB      123             0.0000000000
     15362       123  PMPE      C38           -21.9870239738        7.0400092427       -5.0844050869  MEMB      123             0.0000000000
     15363       123  PMPE      H8X           -21.8894470913        6.0616856212       -4.6031019439  MEMB      123             0.0000000000
     15364       123  PMPE      H8Y           -22.8751395695        7.1081338837       -5.7095110771  MEMB      123             0.0000000000
     15365       123  PMPE      C39           -21.6923861859        8.0605460893       -3.9852991860  MEMB      123             0.0000000000
     15366       123  PMPE      H9X           -21.3641850411        9.0503710180       -4.3816405017  MEMB      123             0.0000000000
     15367       123  PMPE      H9Y           -20.8675986077        7.7223284319       -3.3068259563  MEMB      123             0.0000000000
     15368       123  PMPE      C310          -23.0373020151        8.2707660637       -3.3871364852  MEMB      123             0.0000000000
     15369       123  PMPE      H10X          -23.4316636834        7.2831473141       -3.0539612459  MEMB      123             0.0000000000
     15370       123  PMPE      H10Y          -23.6662032098        8.5716418115       -4.2645822285  MEMB      123             0.0000000000
     15371       123  PMPE      C311          -23.1612619296        9.4264269495       -2.3928956903  MEMB      123             0.0000000000
     15372       123  PMPE      H11X          -24.0434916895        9.1311055838       -1.7678790753  MEMB      123             0.0000000000
     15373       123  PMPE      H11Y          -23.4321040065       10.3362323988       -2.9566260119  MEMB      123             0.0000000000
     15374       123  PMPE      C312          -21.9208242913        9.8857883841       -1.5636140015  MEMB      123             0.0000000000
     15375       123  PMPE      H12X          -22.2021052995       10.7221937820       -0.8734568912  MEMB      123             0.0000000000
     15376       123  PMPE      H12Y          -20.9518619111        9.9785854556       -2.0739547944  MEMB      123             0.0000000000
     15377       123  PMPE      C313          -21.5436896309        8.8129545001       -0.6366620941  MEMB      123             0.0000000000
     15378       123  PMPE      H13X          -21.4753426503        7.8965585810       -1.2416802269  MEMB      123             0.0000000000
     15379       123  PMPE      H13Y          -22.6262305809        8.8483464262       -0.2932266344  MEMB      123             0.0000000000
     15380       123  PMPE      C314          -20.3381648835        8.8788396344        0.4766289620  MEMB      123             0.0000000000
     15381       123  PMPE      H14X          -20.4656317657        9.7338964795        1.1757370826  MEMB      123             0.0000000000
     15382       123  PMPE      H14Y          -19.4910261845        9.1919946477       -0.0467089576  MEMB      123             0.0000000000
     15383       123  PMPE      C315          -19.7795428531        7.6447197362        1.3940814033  MEMB      123             0.0000000000
     15384       123  PMPE      H15X          -20.4620614197        7.2533008760        2.1528973037  MEMB      123             0.0000000000
     15385       123  PMPE      H15Y          -19.0138275836        7.9157495694        2.1443251046  MEMB      123             0.0000000000
     15386       123  PMPE      C316          -19.6054447179        6.2926203951        0.7714145656  MEMB      123             0.0000000000
     15387       123  PMPE      H16X          -18.9335793145        5.5823725914        1.3161265732  MEMB      123             0.0000000000
     15388       123  PMPE      H16Y          -19.3800991594        6.4564348384       -0.2731675712  MEMB      123             0.0000000000
     15389       123  PMPE      H16Z          -20.5229546422        5.7655210685        0.6836901297  MEMB      123             0.0000000000
     15390       124  OYPE      N             -24.6922204412       -0.4127428983      -20.7899558757  MEMB      124             0.0000000000
     15391       124  OYPE      HN1           -24.8970947576       -0.6071035834      -21.7917169459  MEMB      124             0.0000000000
     15392       124  OYPE      HN2           -25.2663147359       -1.0675677921      -20.2230800912  MEMB      124             0.0000000000
     15393       124  OYPE      HN3           -25.0174259713        0.5436867845      -20.5257381971  MEMB      124             0.0000000000
     15394       124  OYPE      C12           -23.2665417445       -0.6767779835      -20.4003417289  MEMB      124             0.0000000000
     15395       124  OYPE      H12A          -22.5609198171       -0.1305780985      -21.0601765349  MEMB      124             0.0000000000
     15396       124  OYPE      H12B          -23.1204110623       -1.7680687433      -20.5475797041  MEMB      124             0.0000000000
     15397       124  OYPE      C11           -23.0750446613       -0.3557733428      -18.9104399596  MEMB      124             0.0000000000
     15398       124  OYPE      H11A          -22.0880281358       -0.7628601902      -18.5956530037  MEMB      124             0.0000000000
     15399       124  OYPE      H11B          -23.8480864475       -0.9076970173      -18.3256814546  MEMB      124             0.0000000000
     15400       124  OYPE      P             -21.9031193819        1.9787920666      -18.4799728279  MEMB      124             0.0000000000
     15401       124  OYPE      O13           -22.3049375908        3.3853638254      -18.6460168359  MEMB      124             0.0000000000
     15402       124  OYPE      O14           -20.8217188672        1.4976686448      -19.3743050286  MEMB      124             0.0000000000
     15403       124  OYPE      O11           -21.4082404520        1.7800518574      -16.9830067976  MEMB      124             0.0000000000
     15404       124  OYPE      O12           -23.1927868339        1.0368346311      -18.6267447210  MEMB      124             0.0000000000
     15405       124  OYPE      C1            -21.1735164974        0.4710941422      -16.4700339479  MEMB      124             0.0000000000
     15406       124  OYPE      HA            -20.3407771771       -0.0353272018      -17.0153698485  MEMB      124             0.0000000000
     15407       124  OYPE      HB            -22.1073628249       -0.1290889592      -16.5001306470  MEMB      124             0.0000000000
     15408       124  OYPE      C2            -20.7522798372        0.4954037533      -15.0031084110  MEMB      124             0.0000000000
     15409       124  OYPE      HS            -20.6111181866       -0.5588122108      -14.6507117585  MEMB      124             0.0000000000
     15410       124  OYPE      O21           -21.6819719102        1.1981516962      -14.2066582600  MEMB      124             0.0000000000
     15411       124  OYPE      C21           -22.5124177848        0.4718341890      -13.5520443586  MEMB      124             0.0000000000
     15412       124  OYPE      O22           -22.8637127669       -0.6735584918      -13.7779160778  MEMB      124             0.0000000000
     15413       124  OYPE      C22           -22.9586477977        1.3366650733      -12.4136877844  MEMB      124             0.0000000000
     15414       124  OYPE      H2R           -23.9098477002        1.7059865712      -12.6755994827  MEMB      124             0.0000000000
     15415       124  OYPE      H2S           -22.4729792443        2.3258766135      -12.3530741471  MEMB      124             0.0000000000
     15416       124  OYPE      C3            -19.4283088470        1.2341177341      -14.8329623833  MEMB      124             0.0000000000
     15417       124  OYPE      HX            -19.4839392928        2.2089070351      -15.3531752134  MEMB      124             0.0000000000
     15418       124  OYPE      HY            -18.6488500666        0.6341171521      -15.3502941534  MEMB      124             0.0000000000
     15419       124  OYPE      O31           -19.1457016196        1.4989020592      -13.4431359166  MEMB      124             0.0000000000
     15420       124  OYPE      C31           -18.9764862531        0.3927456058      -12.7421337269  MEMB      124             0.0000000000
     15421       124  OYPE      O32           -18.8475384345       -0.7266952106      -13.2127037085  MEMB      124             0.0000000000
     15422       124  OYPE      C32           -18.7699705792        0.7644495651      -11.2717627673  MEMB      124             0.0000000000
     15423       124  OYPE      H2X           -17.9532997676        1.5014156876      -11.1548513440  MEMB      124             0.0000000000
     15424       124  OYPE      H2Y           -19.7160003452        1.1505154087      -10.8793445791  MEMB      124             0.0000000000
     15425       124  OYPE      C23           -23.3328703006        0.4906151091      -11.2034310777  MEMB      124             0.0000000000
     15426       124  OYPE      H3R           -22.5128673916        0.4150360791      -10.4984286779  MEMB      124             0.0000000000
     15427       124  OYPE      H3S           -23.9406742495       -0.4183327293      -11.4965630600  MEMB      124             0.0000000000
     15428       124  OYPE      C24           -24.2793984276        1.2149725461      -10.3690140793  MEMB      124             0.0000000000
     15429       124  OYPE      H4R           -25.0019812830        1.1169959017      -11.2270878639  MEMB      124             0.0000000000
     15430       124  OYPE      H4S           -23.9267607877        2.2725666517      -10.2184304684  MEMB      124             0.0000000000
     15431       124  OYPE      C25           -25.0514171005        0.6551922047       -9.1499825943  MEMB      124             0.0000000000
     15432       124  OYPE      H5R           -25.5544160921       -0.2770983125       -9.4413098838  MEMB      124             0.0000000000
     15433       124  OYPE      H5S           -25.9473961879        1.2081987505       -8.7828024682  MEMB      124             0.0000000000
     15434       124  OYPE      C26           -24.2018726748        0.7885756002       -7.9226758753  MEMB      124             0.0000000000
     15435       124  OYPE      H6R           -23.9828564695        1.8529906097       -7.6667283254  MEMB      124             0.0000000000
     15436       124  OYPE      H6S           -23.2846389772        0.2482418844       -8.2254413037  MEMB      124             0.0000000000
     15437       124  OYPE      C27           -24.8313131504        0.1463588245       -6.7088400182  MEMB      124             0.0000000000
     15438       124  OYPE      H7R           -25.0083804349       -0.8591636276       -7.0679302536  MEMB      124             0.0000000000
     15439       124  OYPE      H7S           -25.7810803872        0.6203879079       -6.3799094671  MEMB      124             0.0000000000
     15440       124  OYPE      C28           -23.7886526670       -0.2250664880       -5.6688745133  MEMB      124             0.0000000000
     15441       124  OYPE      H8R           -23.0303561879        0.5754510662       -5.7351373596  MEMB      124             0.0000000000
     15442       124  OYPE      H8S           -23.3228556325       -1.1625724629       -6.0646501264  MEMB      124             0.0000000000
     15443       124  OYPE      C29           -24.1629518478       -0.4388761921       -4.2366425732  MEMB      124             0.0000000000
     15444       124  OYPE      H9R           -23.9475719010       -1.4413649232       -3.8468832306  MEMB      124             0.0000000000
     15445       124  OYPE      C210          -24.9879266794        0.3117420866       -3.4960311473  MEMB      124             0.0000000000
     15446       124  OYPE      H10R          -25.4077377596        0.0069484464       -2.5484255384  MEMB      124             0.0000000000
     15447       124  OYPE      C211          -25.7155561094        1.4785559412       -3.9241054730  MEMB      124             0.0000000000
     15448       124  OYPE      H11R          -26.5878935361        1.1965208701       -4.5749184599  MEMB      124             0.0000000000
     15449       124  OYPE      H11S          -24.9630400645        1.9210244493       -4.5397527896  MEMB      124             0.0000000000
     15450       124  OYPE      C212          -26.1420602482        2.3612484877       -2.7601108334  MEMB      124             0.0000000000
     15451       124  OYPE      H12R          -27.0100687667        1.9232875422       -2.2044828836  MEMB      124             0.0000000000
     15452       124  OYPE      H12S          -26.4827663595        3.3371333072       -3.1155262983  MEMB      124             0.0000000000
     15453       124  OYPE      C213          -25.0653315027        2.9239429101       -2.0008843876  MEMB      124             0.0000000000
     15454       124  OYPE      H13R          -24.2878597359        3.2560555291       -2.6981527114  MEMB      124             0.0000000000
     15455       124  OYPE      H13S          -24.8608122769        1.9510035534       -1.5279794300  MEMB      124             0.0000000000
     15456       124  OYPE      C214          -25.4368121360        4.0869588628       -1.1179761712  MEMB      124             0.0000000000
     15457       124  OYPE      H14R          -26.0508883392        4.8259115880       -1.6893705902  MEMB      124             0.0000000000
     15458       124  OYPE      H14S          -24.6307913442        4.5399044011       -0.5286498660  MEMB      124             0.0000000000
     15459       124  OYPE      C215          -26.3207924725        3.5732566863       -0.0985116614  MEMB      124             0.0000000000
     15460       124  OYPE      H15R          -27.1038259282        3.3677531154       -0.7583237633  MEMB      124             0.0000000000
     15461       124  OYPE      H15S          -26.5541248812        4.1941783653        0.7696723893  MEMB      124             0.0000000000
     15462       124  OYPE      C216          -26.1626447410        2.2405301646        0.3831477927  MEMB      124             0.0000000000
     15463       124  OYPE      H16R          -25.3682195145        2.5103508046        1.0949400828  MEMB      124             0.0000000000
     15464       124  OYPE      H16S          -26.1645951817        1.3946300906       -0.2978756235  MEMB      124             0.0000000000
     15465       124  OYPE      H16T          -26.9595232581        1.7414624308        0.9200888695  MEMB      124             0.0000000000
     15466       124  OYPE      C33           -18.3662921896       -0.4450623164      -10.4554072206  MEMB      124             0.0000000000
     15467       124  OYPE      H3X           -17.5389354831       -0.8716797149      -11.0594533227  MEMB      124             0.0000000000
     15468       124  OYPE      H3Y           -19.1878556711       -1.1914965282      -10.4910712962  MEMB      124             0.0000000000
     15469       124  OYPE      C34           -18.0103690285       -0.1816561749       -8.9695550867  MEMB      124             0.0000000000
     15470       124  OYPE      H4X           -17.4802458175       -0.9946898695       -8.4392591352  MEMB      124             0.0000000000
     15471       124  OYPE      H4Y           -17.3075911080        0.5967610023       -8.7470962010  MEMB      124             0.0000000000
     15472       124  OYPE      C35           -19.1800616646        0.2851781972       -8.1599134248  MEMB      124             0.0000000000
     15473       124  OYPE      H5X           -19.0265765302       -0.1266345204       -7.1353404879  MEMB      124             0.0000000000
     15474       124  OYPE      H5Y           -20.1075106945       -0.1452612784       -8.5911456075  MEMB      124             0.0000000000
     15475       124  OYPE      C36           -19.2831754094        1.8099966115       -8.0470968848  MEMB      124             0.0000000000
     15476       124  OYPE      H6X           -18.3659696572        2.2703024140       -7.6173763658  MEMB      124             0.0000000000
     15477       124  OYPE      H6Y           -19.4525068372        2.3055601864       -9.0308503187  MEMB      124             0.0000000000
     15478       124  OYPE      C37           -20.4303463850        2.0586694662       -7.0816303495  MEMB      124             0.0000000000
     15479       124  OYPE      H7X           -21.2867425835        1.4304507074       -7.3980410961  MEMB      124             0.0000000000
     15480       124  OYPE      H7Y           -20.0919396252        1.7191752705       -6.0741032759  MEMB      124             0.0000000000
     15481       124  OYPE      C38           -20.8241994414        3.5179761621       -6.9702064296  MEMB      124             0.0000000000
     15482       124  OYPE      H8X           -20.0583078556        3.8910953240       -6.2632855778  MEMB      124             0.0000000000
     15483       124  OYPE      H8Y           -20.7046470785        4.0161461324       -7.9541052895  MEMB      124             0.0000000000
     15484       124  OYPE      C39           -22.2337721479        3.7745610218       -6.5162765439  MEMB      124             0.0000000000
     15485       124  OYPE      H9X           -22.9045834404        4.0525996145       -7.3342482338  MEMB      124             0.0000000000
     15486       124  OYPE      C310          -22.6732944476        3.9234158198       -5.2635060271  MEMB      124             0.0000000000
     15487       124  OYPE      H10X          -23.7030778527        4.1877349518       -5.0241666062  MEMB      124             0.0000000000
     15488       124  OYPE      C311          -21.8251754501        3.8650462221       -4.0575914254  MEMB      124             0.0000000000
     15489       124  OYPE      H11X          -20.8146583507        4.3036917598       -4.2316339154  MEMB      124             0.0000000000
     15490       124  OYPE      H11Y          -22.2663448987        4.4394849761       -3.1980869760  MEMB      124             0.0000000000
     15491       124  OYPE      C312          -21.6005176281        2.4340466691       -3.7222854079  MEMB      124             0.0000000000
     15492       124  OYPE      H12X          -21.3460844459        1.7433148232       -4.5261362465  MEMB      124             0.0000000000
     15493       124  OYPE      H12Y          -22.5779220199        2.0633934679       -3.3040393524  MEMB      124             0.0000000000
     15494       124  OYPE      C313          -20.3075470809        2.4108397028       -2.9102602260  MEMB      124             0.0000000000
     15495       124  OYPE      H13X          -19.5747174497        3.1907947328       -2.6382384281  MEMB      124             0.0000000000
     15496       124  OYPE      H13Y          -20.8406497789        3.2141817567       -2.3085865837  MEMB      124             0.0000000000
     15497       124  OYPE      C314          -19.9473768481        0.9133463450       -2.3804251747  MEMB      124             0.0000000000
     15498       124  OYPE      H14X          -19.4252301980        0.9334631526       -1.3814232027  MEMB      124             0.0000000000
     15499       124  OYPE      H14Y          -19.1517101208        0.5570383599       -3.0257364863  MEMB      124             0.0000000000
     15500       124  OYPE      C315          -21.0431222171       -0.2740052751       -2.2670665396  MEMB      124             0.0000000000
     15501       124  OYPE      H15X          -20.6477537167       -1.1598815829       -1.6847320756  MEMB      124             0.0000000000
     15502       124  OYPE      H15Y          -21.5234390833       -0.4718478009       -3.2333434753  MEMB      124             0.0000000000
     15503       124  OYPE      C316          -22.4727675697       -0.1975961370       -1.7545551283  MEMB      124             0.0000000000
     15504       124  OYPE      H16X          -23.2625568927       -0.9028965432       -2.0236051925  MEMB      124             0.0000000000
     15505       124  OYPE      H16Y          -23.0444779656        0.6977311072       -1.6875224214  MEMB      124             0.0000000000
     15506       124  OYPE      C317          -22.5149370687       -0.6466011309       -0.5768826492  MEMB      124             0.0000000000
     15507       124  OYPE      H17X          -22.3432835824        0.2434326491        0.1784909523  MEMB      124             0.0000000000
     15508       124  OYPE      H17Y          -21.6741288684       -0.3110865045        0.1688576047  MEMB      124             0.0000000000
     15509       124  OYPE      C318          -23.8678375233       -1.9290558876       -0.3802439428  MEMB      124             0.0000000000
     15510       124  OYPE      H18X          -24.1403463546       -2.7610362874       -0.8859192479  MEMB      124             0.0000000000
     15511       124  OYPE      H18Y          -23.4043371114       -2.7782421827       -0.0721241623  MEMB      124             0.0000000000
     15512       124  OYPE      H18Z          -24.3510284517       -2.2064995097        0.6299469188  MEMB      124             0.0000000000
     15513       125  PMPE      N              12.8400206935       20.6437710048      -17.5953542056  MEMB      125             0.0000000000
     15514       125  PMPE      HN1            12.1835428795       21.4557990243      -17.7224456496  MEMB      125             0.0000000000
     15515       125  PMPE      HN2            13.2689130411       20.6242988614      -16.6487948371  MEMB      125             0.0000000000
     15516       125  PMPE      HN3            13.5526531026       20.6762962187      -18.3392681214  MEMB      125             0.0000000000
     15517       125  PMPE      C12            12.0693306249       19.3808145118      -17.8407214211  MEMB      125             0.0000000000
     15518       125  PMPE      H12A           11.2395002077       19.3321164196      -17.1086177591  MEMB      125             0.0000000000
     15519       125  PMPE      H12B           12.7528430263       18.5177880340      -17.6880261343  MEMB      125             0.0000000000
     15520       125  PMPE      C11            11.5836135505       19.4070445061      -19.2909831773  MEMB      125             0.0000000000
     15521       125  PMPE      H11A           11.0603228079       18.4490852198      -19.5287048084  MEMB      125             0.0000000000
     15522       125  PMPE      H11B           12.4830922873       19.4506565910      -19.9447451848  MEMB      125             0.0000000000
     15523       125  PMPE      P               9.1907068887       20.5423869308      -19.4963048501  MEMB      125             0.0000000000
     15524       125  PMPE      O13             8.6438149537       19.8650844325      -20.6801431933  MEMB      125             0.0000000000
     15525       125  PMPE      O14             8.6408603137       21.8908749187      -19.2366538632  MEMB      125             0.0000000000
     15526       125  PMPE      O11             8.9045498034       19.6262094827      -18.2314894963  MEMB      125             0.0000000000
     15527       125  PMPE      O12            10.7938917966       20.5657301381      -19.5557704412  MEMB      125             0.0000000000
     15528       125  PMPE      C1              7.5862764317       19.7300831433      -17.6668432107  MEMB      125             0.0000000000
     15529       125  PMPE      HA              7.3230081150       18.7415965322      -17.2281379804  MEMB      125             0.0000000000
     15530       125  PMPE      HB              6.7897630835       19.9527219247      -18.4235719430  MEMB      125             0.0000000000
     15531       125  PMPE      C2              7.5156664836       20.8325687266      -16.5674951638  MEMB      125             0.0000000000
     15532       125  PMPE      HS              7.5928484581       21.8243560155      -17.0548329832  MEMB      125             0.0000000000
     15533       125  PMPE      O21             8.5688839799       20.5946156177      -15.6016308302  MEMB      125             0.0000000000
     15534       125  PMPE      C21             9.6325564219       21.2832105171      -15.6161072885  MEMB      125             0.0000000000
     15535       125  PMPE      O22             9.9290568874       22.1742740691      -16.3897121676  MEMB      125             0.0000000000
     15536       125  PMPE      C22            10.5658160650       20.7541531458      -14.5223616688  MEMB      125             0.0000000000
     15537       125  PMPE      H2R            11.5883074482       21.1121667259      -14.7637163396  MEMB      125             0.0000000000
     15538       125  PMPE      H2S            10.5539087544       19.6476018296      -14.4823324217  MEMB      125             0.0000000000
     15539       125  PMPE      C3              6.1822205751       20.7425860064      -15.8179819817  MEMB      125             0.0000000000
     15540       125  PMPE      HX              5.3678440984       20.3688352039      -16.5103996710  MEMB      125             0.0000000000
     15541       125  PMPE      HY              5.7906364781       21.7114875533      -15.4271001885  MEMB      125             0.0000000000
     15542       125  PMPE      O31             6.5652003160       19.8057649806      -14.7827963038  MEMB      125             0.0000000000
     15543       125  PMPE      C31             6.7856952665       20.2470772820      -13.4761627447  MEMB      125             0.0000000000
     15544       125  PMPE      O32             6.6039635214       21.3991837781      -13.1528710002  MEMB      125             0.0000000000
     15545       125  PMPE      C32             6.9000640527       19.0390339221      -12.4039178210  MEMB      125             0.0000000000
     15546       125  PMPE      H2X             7.5009372833       18.1846636336      -12.6926547898  MEMB      125             0.0000000000
     15547       125  PMPE      H2Y             6.0043869898       18.4592345906      -12.2204356265  MEMB      125             0.0000000000
     15548       125  PMPE      C23            10.1332070337       21.2755315098      -13.1390156900  MEMB      125             0.0000000000
     15549       125  PMPE      H3R             9.1237633581       20.9744731920      -12.8421581488  MEMB      125             0.0000000000
     15550       125  PMPE      H3S             9.8104760395       22.3024727435      -13.2144583303  MEMB      125             0.0000000000
     15551       125  PMPE      C24            11.1837562162       21.0139200841      -12.0505302171  MEMB      125             0.0000000000
     15552       125  PMPE      H4R            11.1444709336       21.7364697498      -11.2264662938  MEMB      125             0.0000000000
     15553       125  PMPE      H4S            12.2316477843       21.0575346019      -12.4185947097  MEMB      125             0.0000000000
     15554       125  PMPE      C25            10.8752986670       19.6376183980      -11.4877123435  MEMB      125             0.0000000000
     15555       125  PMPE      H5R            10.7494625245       19.0069978453      -12.3928226654  MEMB      125             0.0000000000
     15556       125  PMPE      H5S             9.9002019321       19.6772437982      -10.9514940018  MEMB      125             0.0000000000
     15557       125  PMPE      C26            11.9661537280       19.0192792157      -10.6167370693  MEMB      125             0.0000000000
     15558       125  PMPE      H6R            12.9370831297       19.1081238881      -11.1462571280  MEMB      125             0.0000000000
     15559       125  PMPE      H6S            11.7540138846       17.9326907792      -10.5117158734  MEMB      125             0.0000000000
     15560       125  PMPE      C27            12.0804369958       19.6639645344       -9.2292577292  MEMB      125             0.0000000000
     15561       125  PMPE      H7R            12.3564039190       20.7251816075       -9.3953887264  MEMB      125             0.0000000000
     15562       125  PMPE      H7S            12.9321130997       19.1939129534       -8.6922964591  MEMB      125             0.0000000000
     15563       125  PMPE      C28            10.7719858766       19.5901391338       -8.4129723764  MEMB      125             0.0000000000
     15564       125  PMPE      H8R             9.9913083285       20.2064082873       -8.9155705549  MEMB      125             0.0000000000
     15565       125  PMPE      H8S            10.8670537937       20.0230700011       -7.4000149343  MEMB      125             0.0000000000
     15566       125  PMPE      C29            10.2947694381       18.1610654569       -8.2394770726  MEMB      125             0.0000000000
     15567       125  PMPE      H9R            10.1453498721       17.5325894978       -9.1311554018  MEMB      125             0.0000000000
     15568       125  PMPE      C217            9.2353223858       18.0113720653       -7.1578535046  MEMB      125             0.0000000000
     15569       125  PMPE      H17R            8.4724884793       17.3221036920       -7.4870122244  MEMB      125             0.0000000000
     15570       125  PMPE      H17S            9.0387577567       18.9552315585       -6.6761977058  MEMB      125             0.0000000000
     15571       125  PMPE      C210           10.6145263027       17.3880292070       -6.9788617111  MEMB      125             0.0000000000
     15572       125  PMPE      H10R           10.6547556394       16.3080404770       -7.1989663501  MEMB      125             0.0000000000
     15573       125  PMPE      C211           11.6565800099       17.9628848507       -5.9838191782  MEMB      125             0.0000000000
     15574       125  PMPE      H11R           11.3100646506       18.8952717311       -5.4920389653  MEMB      125             0.0000000000
     15575       125  PMPE      H11S           12.5878693970       18.2051820882       -6.5380176252  MEMB      125             0.0000000000
     15576       125  PMPE      C212           12.0289047845       16.8834290271       -4.9329058289  MEMB      125             0.0000000000
     15577       125  PMPE      H12R           12.1576845836       15.9350984588       -5.4992746623  MEMB      125             0.0000000000
     15578       125  PMPE      H12S           11.1772474395       16.7603677710       -4.2309089325  MEMB      125             0.0000000000
     15579       125  PMPE      C213           13.3497274596       16.9846563254       -4.1363627810  MEMB      125             0.0000000000
     15580       125  PMPE      H13R           14.1898577200       17.3953302256       -4.7291943397  MEMB      125             0.0000000000
     15581       125  PMPE      H13S           13.6491106883       15.9667451317       -3.8126269609  MEMB      125             0.0000000000
     15582       125  PMPE      C214           13.2433149240       17.6457477680       -2.7911734626  MEMB      125             0.0000000000
     15583       125  PMPE      H14R           14.1914625082       17.6486196308       -2.2008220932  MEMB      125             0.0000000000
     15584       125  PMPE      H14S           12.3792885886       17.2879904820       -2.1821300518  MEMB      125             0.0000000000
     15585       125  PMPE      C215           12.8269961214       19.0236641648       -2.8614186333  MEMB      125             0.0000000000
     15586       125  PMPE      H15R           12.8422365456       19.1930377015       -1.7752610812  MEMB      125             0.0000000000
     15587       125  PMPE      H15S           11.9617349618       19.2851435812       -3.5425572002  MEMB      125             0.0000000000
     15588       125  PMPE      C216           13.7070821705       20.0831960335       -3.0771253511  MEMB      125             0.0000000000
     15589       125  PMPE      H16R           14.6460026446       20.2825808249       -2.5750211045  MEMB      125             0.0000000000
     15590       125  PMPE      H16S           13.8504696627       19.4672549638       -3.9775624563  MEMB      125             0.0000000000
     15591       125  PMPE      H16T           13.3964214182       21.1032169044       -3.3688114346  MEMB      125             0.0000000000
     15592       125  PMPE      C33             6.5706135246       19.4699390315      -10.9503578323  MEMB      125             0.0000000000
     15593       125  PMPE      H3X             5.7556652178       20.1516132078      -11.1140835837  MEMB      125             0.0000000000
     15594       125  PMPE      H3Y             7.2491131788       20.2535305768      -10.6794908672  MEMB      125             0.0000000000
     15595       125  PMPE      C34             6.3275600608       18.4066521076       -9.8134252988  MEMB      125             0.0000000000
     15596       125  PMPE      H4X             6.9312329235       17.5236559379      -10.0142280477  MEMB      125             0.0000000000
     15597       125  PMPE      H4Y             5.4350964452       17.7867792129       -9.6321528550  MEMB      125             0.0000000000
     15598       125  PMPE      C35             6.3278818378       18.9724718154       -8.3967150443  MEMB      125             0.0000000000
     15599       125  PMPE      H5X             5.7708175118       19.9186599554       -8.2392303179  MEMB      125             0.0000000000
     15600       125  PMPE      H5Y             7.3683440797       19.2562572545       -8.2555042749  MEMB      125             0.0000000000
     15601       125  PMPE      C36             5.7982042561       17.9093461177       -7.4011615206  MEMB      125             0.0000000000
     15602       125  PMPE      H6X             6.5255160576       17.0939977367       -7.3766758948  MEMB      125             0.0000000000
     15603       125  PMPE      H6Y             4.8916419502       17.3637058288       -7.7480953359  MEMB      125             0.0000000000
     15604       125  PMPE      C37             5.4649037582       18.4489689113       -6.0125856144  MEMB      125             0.0000000000
     15605       125  PMPE      H7X             5.0854474282       17.5937030259       -5.4117807004  MEMB      125             0.0000000000
     15606       125  PMPE      H7Y             4.6858924612       19.2458425992       -6.0582071226  MEMB      125             0.0000000000
     15607       125  PMPE      C38             6.6620516115       19.0500549286       -5.3058062560  MEMB      125             0.0000000000
     15608       125  PMPE      H8X             7.1958130880       19.7149264737       -6.0207289466  MEMB      125             0.0000000000
     15609       125  PMPE      H8Y             7.3414466127       18.2342774122       -4.9748519353  MEMB      125             0.0000000000
     15610       125  PMPE      C39             6.2597306234       19.8979999641       -4.1109113426  MEMB      125             0.0000000000
     15611       125  PMPE      H9X             5.9334622196       19.2439656172       -3.2710211655  MEMB      125             0.0000000000
     15612       125  PMPE      H9Y             5.4372656500       20.5903708864       -4.3980473697  MEMB      125             0.0000000000
     15613       125  PMPE      C310            7.4139943430       20.7482741247       -3.6433990467  MEMB      125             0.0000000000
     15614       125  PMPE      H10X            7.0600625378       21.4710565735       -2.8762703036  MEMB      125             0.0000000000
     15615       125  PMPE      H10Y            7.8593867827       21.3442098615       -4.4761184329  MEMB      125             0.0000000000
     15616       125  PMPE      C311            8.5362415847       19.9222298835       -3.0468442301  MEMB      125             0.0000000000
     15617       125  PMPE      H11X            9.2121100740       20.7316563327       -2.8914272421  MEMB      125             0.0000000000
     15618       125  PMPE      H11Y            9.1309338339       19.3229752123       -3.7617479182  MEMB      125             0.0000000000
     15619       125  PMPE      C312            8.2202771197       19.1679701679       -1.7439307004  MEMB      125             0.0000000000
     15620       125  PMPE      H12X            7.5246825587       18.3737033009       -2.0027946193  MEMB      125             0.0000000000
     15621       125  PMPE      H12Y            7.6820765189       19.7667182186       -0.9812498854  MEMB      125             0.0000000000
     15622       125  PMPE      C313            9.4934927632       18.5161624242       -1.2091676097  MEMB      125             0.0000000000
     15623       125  PMPE      H13X           10.1259934933       19.3452060957       -1.1937372141  MEMB      125             0.0000000000
     15624       125  PMPE      H13Y            9.9620503730       17.7923144121       -1.8986200991  MEMB      125             0.0000000000
     15625       125  PMPE      C314            9.6168852065       18.0968075279        0.2307873328  MEMB      125             0.0000000000
     15626       125  PMPE      H14X           10.5695464970       17.7122372511        0.5330953462  MEMB      125             0.0000000000
     15627       125  PMPE      H14Y            9.0170823023       17.3089262675        0.6999223023  MEMB      125             0.0000000000
     15628       125  PMPE      C315            9.0850859616       18.9855940715        1.1348674812  MEMB      125             0.0000000000
     15629       125  PMPE      H15X            7.9676984153       19.0111122880        1.0627977189  MEMB      125             0.0000000000
     15630       125  PMPE      H15Y            9.3815993987       20.0260088742        1.0553612786  MEMB      125             0.0000000000
     15631       125  PMPE      C316            9.6759181111       18.3373163716        2.3630468868  MEMB      125             0.0000000000
     15632       125  PMPE      H16X           10.7355777194       18.3124063817        2.6362752295  MEMB      125             0.0000000000
     15633       125  PMPE      H16Y            8.9587414565       17.7308167537        2.9721255275  MEMB      125             0.0000000000
     15634       125  PMPE      H16Z            9.8263625224       19.2943680174        2.7966894174  MEMB      125             0.0000000000
     15635       126  PMPE      N              21.2048171886       -5.5614585853      -16.4909962913  MEMB      126             0.0000000000
     15636       126  PMPE      HN1            20.7147337158       -4.7778193748      -16.9791099172  MEMB      126             0.0000000000
     15637       126  PMPE      HN2            20.5756686579       -6.0010512750      -15.7907042392  MEMB      126             0.0000000000
     15638       126  PMPE      HN3            22.0695509091       -5.1774189753      -16.0531969802  MEMB      126             0.0000000000
     15639       126  PMPE      C12            21.5975384217       -6.5773768344      -17.5280877631  MEMB      126             0.0000000000
     15640       126  PMPE      H12A           20.6579955672       -6.9718239841      -17.9689951949  MEMB      126             0.0000000000
     15641       126  PMPE      H12B           22.1419166775       -7.3813017219      -16.9902938251  MEMB      126             0.0000000000
     15642       126  PMPE      C11            22.5497127413       -6.0115556397      -18.5966682763  MEMB      126             0.0000000000
     15643       126  PMPE      H11A           22.3830227296       -6.5169764600      -19.5674459516  MEMB      126             0.0000000000
     15644       126  PMPE      H11B           23.5811561858       -6.2518207911      -18.2650784910  MEMB      126             0.0000000000
     15645       126  PMPE      P              23.1240049919       -3.8310898376      -19.9483288260  MEMB      126             0.0000000000
     15646       126  PMPE      O13            22.6689033245       -2.4413089938      -19.7786758550  MEMB      126             0.0000000000
     15647       126  PMPE      O14            22.8168885768       -4.5474224655      -21.2031536463  MEMB      126             0.0000000000
     15648       126  PMPE      O11            24.6782591518       -3.9154893477      -19.6299974825  MEMB      126             0.0000000000
     15649       126  PMPE      O12            22.4039216068       -4.6119397378      -18.7487218861  MEMB      126             0.0000000000
     15650       126  PMPE      C1             25.2764742756       -2.8825398813      -18.8352574724  MEMB      126             0.0000000000
     15651       126  PMPE      HA             24.8725732274       -1.8605521234      -19.0500958306  MEMB      126             0.0000000000
     15652       126  PMPE      HB             26.3420520080       -2.8535434542      -19.1278378742  MEMB      126             0.0000000000
     15653       126  PMPE      C2             25.2411901738       -3.1755087633      -17.3080445949  MEMB      126             0.0000000000
     15654       126  PMPE      HS             26.1632316595       -2.7465882037      -16.8426505197  MEMB      126             0.0000000000
     15655       126  PMPE      O21            25.1074147381       -4.5958815628      -17.0819298439  MEMB      126             0.0000000000
     15656       126  PMPE      C21            26.0265618521       -5.1702398076      -16.3430629060  MEMB      126             0.0000000000
     15657       126  PMPE      O22            26.9758269384       -4.6180412716      -15.8170101616  MEMB      126             0.0000000000
     15658       126  PMPE      C22            25.7791817567       -6.6801460123      -16.3667389358  MEMB      126             0.0000000000
     15659       126  PMPE      H2R            26.4167711312       -7.0701230718      -17.1915384977  MEMB      126             0.0000000000
     15660       126  PMPE      H2S            24.7169119631       -6.9002614602      -16.5642860682  MEMB      126             0.0000000000
     15661       126  PMPE      C3             24.0567936787       -2.4870045519      -16.6187456808  MEMB      126             0.0000000000
     15662       126  PMPE      HX             23.1053287163       -2.8622402679      -17.0400103053  MEMB      126             0.0000000000
     15663       126  PMPE      HY             24.0928503247       -1.3745453037      -16.7552972688  MEMB      126             0.0000000000
     15664       126  PMPE      O31            24.1127122234       -2.9142330871      -15.2620526998  MEMB      126             0.0000000000
     15665       126  PMPE      C31            23.4625288495       -2.1501315791      -14.4637070111  MEMB      126             0.0000000000
     15666       126  PMPE      O32            22.8977630177       -1.1021060925      -14.7558103519  MEMB      126             0.0000000000
     15667       126  PMPE      C32            23.6109339584       -2.8110371744      -13.0877003732  MEMB      126             0.0000000000
     15668       126  PMPE      H2X            23.3302403609       -3.8591199686      -13.1174181421  MEMB      126             0.0000000000
     15669       126  PMPE      H2Y            23.0180759496       -2.2600105420      -12.3151519151  MEMB      126             0.0000000000
     15670       126  PMPE      C23            26.1926618611       -7.3239350895      -15.0363647842  MEMB      126             0.0000000000
     15671       126  PMPE      H3R            27.2742050555       -7.1501592057      -14.9193563355  MEMB      126             0.0000000000
     15672       126  PMPE      H3S            26.0764273722       -8.4256972176      -15.0583176484  MEMB      126             0.0000000000
     15673       126  PMPE      C24            25.5047880653       -6.7457699617      -13.7855539967  MEMB      126             0.0000000000
     15674       126  PMPE      H4R            25.8053406170       -5.6806958708      -13.6534078872  MEMB      126             0.0000000000
     15675       126  PMPE      H4S            25.9167547096       -7.3193805604      -12.9270788450  MEMB      126             0.0000000000
     15676       126  PMPE      C25            23.9734012433       -6.7802390837      -13.7026012131  MEMB      126             0.0000000000
     15677       126  PMPE      H5R            23.5700629517       -7.7836540040      -13.9569928592  MEMB      126             0.0000000000
     15678       126  PMPE      H5S            23.5774327460       -6.0367742878      -14.4259042396  MEMB      126             0.0000000000
     15679       126  PMPE      C26            23.4799234329       -6.4182699441      -12.2841187279  MEMB      126             0.0000000000
     15680       126  PMPE      H6R            23.9774222345       -5.4876836010      -11.9337371019  MEMB      126             0.0000000000
     15681       126  PMPE      H6S            23.8197599248       -7.2145026664      -11.5848969180  MEMB      126             0.0000000000
     15682       126  PMPE      C27            21.9476693010       -6.2560378051      -12.2198103251  MEMB      126             0.0000000000
     15683       126  PMPE      H7R            21.4693551672       -7.2416507630      -12.4130096559  MEMB      126             0.0000000000
     15684       126  PMPE      H7S            21.6125150538       -5.5574833384      -13.0163601160  MEMB      126             0.0000000000
     15685       126  PMPE      C28            21.3978529697       -5.7234355800      -10.8835846649  MEMB      126             0.0000000000
     15686       126  PMPE      H8R            21.5775579878       -4.6291712943      -10.8401442004  MEMB      126             0.0000000000
     15687       126  PMPE      H8S            21.9373971127       -6.1726722249      -10.0266398915  MEMB      126             0.0000000000
     15688       126  PMPE      C29            19.8972239307       -6.0061627973      -10.7929661968  MEMB      126             0.0000000000
     15689       126  PMPE      H9R            19.4837307955       -6.9125693432      -11.2754122057  MEMB      126             0.0000000000
     15690       126  PMPE      C217           19.1165145527       -4.7465396663      -11.1787609817  MEMB      126             0.0000000000
     15691       126  PMPE      H17R           18.4482522693       -5.0148938358      -11.9701371632  MEMB      126             0.0000000000
     15692       126  PMPE      H17S           19.6180647839       -3.7986965587      -11.1588248341  MEMB      126             0.0000000000
     15693       126  PMPE      C210           18.9903076114       -5.3527790401       -9.7851520698  MEMB      126             0.0000000000
     15694       126  PMPE      H10R           18.1320004166       -5.9843057207       -9.4955231431  MEMB      126             0.0000000000
     15695       126  PMPE      C211           19.6668123024       -4.6289003882       -8.6457299758  MEMB      126             0.0000000000
     15696       126  PMPE      H11R           18.9035353385       -4.0110103531       -8.1233404877  MEMB      126             0.0000000000
     15697       126  PMPE      H11S           20.4813460472       -3.9897750898       -9.0460560604  MEMB      126             0.0000000000
     15698       126  PMPE      C212           20.2171227710       -5.6752367496       -7.6805322007  MEMB      126             0.0000000000
     15699       126  PMPE      H12R           21.2031864594       -6.0320690541       -8.0478061129  MEMB      126             0.0000000000
     15700       126  PMPE      H12S           19.4854310087       -6.5173068436       -7.6822131247  MEMB      126             0.0000000000
     15701       126  PMPE      C213           20.3463768428       -5.2251942607       -6.2241750310  MEMB      126             0.0000000000
     15702       126  PMPE      H13R           19.4475979833       -4.6373942126       -5.9402620288  MEMB      126             0.0000000000
     15703       126  PMPE      H13S           21.2260218159       -4.5553200760       -6.1460833970  MEMB      126             0.0000000000
     15704       126  PMPE      C214           20.5286287927       -6.4411364089       -5.2966655566  MEMB      126             0.0000000000
     15705       126  PMPE      H14R           21.3130543252       -6.2329717581       -4.5349156912  MEMB      126             0.0000000000
     15706       126  PMPE      H14S           20.9352281720       -7.2700716203       -5.9162051992  MEMB      126             0.0000000000
     15707       126  PMPE      C215           19.2285489702       -6.8963310589       -4.6076870398  MEMB      126             0.0000000000
     15708       126  PMPE      H15R           19.4128172552       -7.8564860152       -4.0692758259  MEMB      126             0.0000000000
     15709       126  PMPE      H15S           18.4335623099       -7.0967918570       -5.3631605820  MEMB      126             0.0000000000
     15710       126  PMPE      C216           18.6797874008       -5.8803123299       -3.6089235585  MEMB      126             0.0000000000
     15711       126  PMPE      H16R           17.6947653876       -6.1610987941       -3.2765650255  MEMB      126             0.0000000000
     15712       126  PMPE      H16S           19.3187540933       -5.8109542497       -2.7045968354  MEMB      126             0.0000000000
     15713       126  PMPE      H16T           18.4626188512       -4.9020219955       -4.0604162416  MEMB      126             0.0000000000
     15714       126  PMPE      C33            25.0633040733       -2.8572266255      -12.6497731375  MEMB      126             0.0000000000
     15715       126  PMPE      H3X            25.6756307505       -1.9923079599      -12.7356894288  MEMB      126             0.0000000000
     15716       126  PMPE      H3Y            25.7884497074       -3.4101097738      -13.2572033356  MEMB      126             0.0000000000
     15717       126  PMPE      C34            25.1368751296       -2.9628556910      -11.1776927595  MEMB      126             0.0000000000
     15718       126  PMPE      H4X            26.1986781455       -2.9133711313      -11.2244961841  MEMB      126             0.0000000000
     15719       126  PMPE      H4Y            25.0281013610       -3.9542956645      -10.7843565290  MEMB      126             0.0000000000
     15720       126  PMPE      C35            24.4740176538       -1.9115765422      -10.3047433258  MEMB      126             0.0000000000
     15721       126  PMPE      H5X            23.3930022069       -1.9102226527      -10.1198634313  MEMB      126             0.0000000000
     15722       126  PMPE      H5Y            24.6600577573       -0.8826670818      -10.4964964666  MEMB      126             0.0000000000
     15723       126  PMPE      C36            24.9156766124       -1.9091792718       -8.9521218184  MEMB      126             0.0000000000
     15724       126  PMPE      H6X            24.4543338358       -0.9246135464       -8.7116525509  MEMB      126             0.0000000000
     15725       126  PMPE      H6Y            25.8605928616       -1.4671265926       -8.7102505669  MEMB      126             0.0000000000
     15726       126  PMPE      C37            24.7710526513       -3.3106130503       -8.3878970819  MEMB      126             0.0000000000
     15727       126  PMPE      H7X            25.6165127658       -3.5319851149       -7.6830272461  MEMB      126             0.0000000000
     15728       126  PMPE      H7Y            25.2976337140       -4.0906171651       -8.9412767469  MEMB      126             0.0000000000
     15729       126  PMPE      C38            23.2911612430       -3.4245878997       -7.6982579588  MEMB      126             0.0000000000
     15730       126  PMPE      H8X            23.3780613561       -4.3801091566       -7.1599581113  MEMB      126             0.0000000000
     15731       126  PMPE      H8Y            22.7700633017       -3.4008644197       -8.6614930220  MEMB      126             0.0000000000
     15732       126  PMPE      C39            22.5908039232       -2.3279605067       -6.6013238724  MEMB      126             0.0000000000
     15733       126  PMPE      H9X            21.5080022787       -2.3502579716       -6.6619957778  MEMB      126             0.0000000000
     15734       126  PMPE      H9Y            22.9951197340       -1.3232282458       -6.8998005288  MEMB      126             0.0000000000
     15735       126  PMPE      C310           22.6542802376       -2.4452296889       -4.9495452024  MEMB      126             0.0000000000
     15736       126  PMPE      H10X           23.5765241665       -2.3575282429       -4.4085613059  MEMB      126             0.0000000000
     15737       126  PMPE      H10Y           22.6803882288       -3.4844370757       -4.6514527991  MEMB      126             0.0000000000
     15738       126  PMPE      C311           22.9909752313       -1.2766884962       -3.9274168909  MEMB      126             0.0000000000
     15739       126  PMPE      H11X           22.1608982734       -1.7513856552       -3.3309934573  MEMB      126             0.0000000000
     15740       126  PMPE      H11Y           22.8563287447       -0.3878263694       -4.5406397415  MEMB      126             0.0000000000
     15741       126  PMPE      C312           24.2977359271       -1.0195230255       -2.9643546465  MEMB      126             0.0000000000
     15742       126  PMPE      H12X           25.1000740818       -0.3343907876       -3.2323995364  MEMB      126             0.0000000000
     15743       126  PMPE      H12Y           25.1313940369       -1.6293238741       -2.7166744487  MEMB      126             0.0000000000
     15744       126  PMPE      C313           23.7852452487       -1.2151425705       -1.5780907682  MEMB      126             0.0000000000
     15745       126  PMPE      H13X           23.0067682677       -1.9762447973       -1.3604970095  MEMB      126             0.0000000000
     15746       126  PMPE      H13Y           22.9844450586       -0.6481665214       -1.8269667628  MEMB      126             0.0000000000
     15747       126  PMPE      C314           24.6927419744       -1.1501837597       -0.4161715406  MEMB      126             0.0000000000
     15748       126  PMPE      H14X           25.1399849262       -0.1455391839       -0.2570731363  MEMB      126             0.0000000000
     15749       126  PMPE      H14Y           25.5812113756       -1.8168622770       -0.5415181795  MEMB      126             0.0000000000
     15750       126  PMPE      C315           23.7194119989       -1.6970221872        0.6274827237  MEMB      126             0.0000000000
     15751       126  PMPE      H15X           24.4118124515       -2.3562681970        1.1437591066  MEMB      126             0.0000000000
     15752       126  PMPE      H15Y           23.0947946800       -2.5807436378        0.4412666481  MEMB      126             0.0000000000
     15753       126  PMPE      C316           22.9173706390       -0.5601409935        1.3173248579  MEMB      126             0.0000000000
     15754       126  PMPE      H16X           22.0913699093       -0.3099487916        0.6646561393  MEMB      126             0.0000000000
     15755       126  PMPE      H16Y           23.4968477775        0.3762521042        1.5269327218  MEMB      126             0.0000000000
     15756       126  PMPE      H16Z           22.3574200863       -0.8208538937        2.2213636807  MEMB      126             0.0000000000
     15757       127  QMPE      N              20.6230872505       -9.9577377824      -19.0061038721  MEMB      127             0.0000000000
     15758       127  QMPE      HN1            20.5085656356       -8.9324741164      -19.2475940802  MEMB      127             0.0000000000
     15759       127  QMPE      HN2            19.8651228142      -10.2884822032      -18.3702515233  MEMB      127             0.0000000000
     15760       127  QMPE      HN3            21.5580478936      -10.1638241760      -18.6202540813  MEMB      127             0.0000000000
     15761       127  QMPE      C12            20.4838445116      -10.6929827126      -20.3189940230  MEMB      127             0.0000000000
     15762       127  QMPE      H12A           21.3608223294      -10.4411529418      -20.9541332406  MEMB      127             0.0000000000
     15763       127  QMPE      H12B           19.5364137919      -10.3369257673      -20.7845576417  MEMB      127             0.0000000000
     15764       127  QMPE      C11            20.4416799311      -12.2008049374      -20.1217190659  MEMB      127             0.0000000000
     15765       127  QMPE      H11A           21.3858522003      -12.5181905694      -19.6201339447  MEMB      127             0.0000000000
     15766       127  QMPE      H11B           20.3894343558      -12.6745577139      -21.1352602236  MEMB      127             0.0000000000
     15767       127  QMPE      P              19.0418893002      -13.8240654540      -18.4952210645  MEMB      127             0.0000000000
     15768       127  QMPE      O13            20.1403530926      -14.7757356144      -18.7630960251  MEMB      127             0.0000000000
     15769       127  QMPE      O14            17.6376710739      -14.2427935955      -18.6266167601  MEMB      127             0.0000000000
     15770       127  QMPE      O11            19.2488037495      -13.1718263942      -17.0958154467  MEMB      127             0.0000000000
     15771       127  QMPE      O12            19.2845306306      -12.5055696439      -19.3610265237  MEMB      127             0.0000000000
     15772       127  QMPE      C1             20.4766488349      -12.6557185449      -16.6177298896  MEMB      127             0.0000000000
     15773       127  QMPE      HA             20.6239858419      -11.6481328810      -17.0488856807  MEMB      127             0.0000000000
     15774       127  QMPE      HB             21.3466361445      -13.2944706150      -16.8953678768  MEMB      127             0.0000000000
     15775       127  QMPE      C2             20.3448869332      -12.5510753477      -15.0769639993  MEMB      127             0.0000000000
     15776       127  QMPE      HS             21.2186617154      -12.0071125198      -14.6479141061  MEMB      127             0.0000000000
     15777       127  QMPE      O21            20.2036119680      -13.8468217566      -14.4569896091  MEMB      127             0.0000000000
     15778       127  QMPE      C21            21.2941228872      -14.5961381853      -14.5169037571  MEMB      127             0.0000000000
     15779       127  QMPE      O22            22.3790286775      -14.2419316365      -14.9475429285  MEMB      127             0.0000000000
     15780       127  QMPE      C22            21.0464113078      -15.9502378166      -13.8559001516  MEMB      127             0.0000000000
     15781       127  QMPE      H2R            20.5570899485      -16.5909269987      -14.6106994903  MEMB      127             0.0000000000
     15782       127  QMPE      H2S            20.3128228546      -15.8235891375      -13.0350832506  MEMB      127             0.0000000000
     15783       127  QMPE      C3             19.0942389904      -11.6939168532      -14.7551380350  MEMB      127             0.0000000000
     15784       127  QMPE      HX             18.1906801668      -12.1337182163      -15.2447238262  MEMB      127             0.0000000000
     15785       127  QMPE      HY             19.2596015855      -10.6966970204      -15.2094289577  MEMB      127             0.0000000000
     15786       127  QMPE      O31            18.9477544967      -11.4737571149      -13.3481205975  MEMB      127             0.0000000000
     15787       127  QMPE      C31            17.9906963001      -12.1658878220      -12.7476134194  MEMB      127             0.0000000000
     15788       127  QMPE      O32            17.3102581698      -13.0414825154      -13.2477949968  MEMB      127             0.0000000000
     15789       127  QMPE      C32            17.8469661182      -11.6365734068      -11.3199186851  MEMB      127             0.0000000000
     15790       127  QMPE      H2X            18.8308275308      -11.7226899427      -10.8133585398  MEMB      127             0.0000000000
     15791       127  QMPE      H2Y            17.5635249429      -10.5633558844      -11.3625474869  MEMB      127             0.0000000000
     15792       127  QMPE      C23            22.3884243237      -16.5975496740      -13.3805005562  MEMB      127             0.0000000000
     15793       127  QMPE      H3R            23.0734000500      -16.7336729596      -14.2405693443  MEMB      127             0.0000000000
     15794       127  QMPE      H3S            22.2911292951      -17.6691062201      -13.1412102556  MEMB      127             0.0000000000
     15795       127  QMPE      C24            23.0077406528      -15.9159199749      -12.1207029117  MEMB      127             0.0000000000
     15796       127  QMPE      H4R            23.4539743633      -14.9877757247      -12.5016702423  MEMB      127             0.0000000000
     15797       127  QMPE      H4S            23.8331629763      -16.5636608597      -11.7186104331  MEMB      127             0.0000000000
     15798       127  QMPE      C25            22.0926347467      -15.5127120385      -10.9156803754  MEMB      127             0.0000000000
     15799       127  QMPE      H5R            21.6552792400      -16.3036220898      -10.3170033800  MEMB      127             0.0000000000
     15800       127  QMPE      H5S            21.1374710185      -15.0421076938      -11.1778621592  MEMB      127             0.0000000000
     15801       127  QMPE      C26            22.8241926746      -15.0229904848       -9.6915370779  MEMB      127             0.0000000000
     15802       127  QMPE      H6R            23.4767369024      -15.7379312989       -9.1804963161  MEMB      127             0.0000000000
     15803       127  QMPE      H6S            22.0515651200      -14.7207935395       -8.9463865740  MEMB      127             0.0000000000
     15804       127  QMPE      C27            23.8025791981      -13.9626947537       -9.9441638366  MEMB      127             0.0000000000
     15805       127  QMPE      H7R            23.3378042683      -13.2814179515      -10.6853199792  MEMB      127             0.0000000000
     15806       127  QMPE      H7S            24.7852567785      -14.3590677334      -10.3152228592  MEMB      127             0.0000000000
     15807       127  QMPE      C28            23.9050993219      -13.3899740429       -8.5644707830  MEMB      127             0.0000000000
     15808       127  QMPE      H8R            24.6565320486      -13.9359151177       -7.9445375995  MEMB      127             0.0000000000
     15809       127  QMPE      H8S            22.9560840105      -13.2932561789       -8.0261044314  MEMB      127             0.0000000000
     15810       127  QMPE      C29            24.2172129618      -12.0349873896       -8.7179893008  MEMB      127             0.0000000000
     15811       127  QMPE      H9R            23.8417842574      -11.4457075526       -9.6347126741  MEMB      127             0.0000000000
     15812       127  QMPE      C217           25.6289883592      -12.3332117711       -8.9490058673  MEMB      127             0.0000000000
     15813       127  QMPE      H17R           26.4205349143      -13.0107077659       -8.6822216058  MEMB      127             0.0000000000
     15814       127  QMPE      H17S           25.7453011024      -11.5385740455       -9.4956213924  MEMB      127             0.0000000000
     15815       127  QMPE      C210           25.3135570948      -11.4426079452       -7.9341963620  MEMB      127             0.0000000000
     15816       127  QMPE      H10R           25.1471735645      -10.3749717824       -8.2973577862  MEMB      127             0.0000000000
     15817       127  QMPE      C211           25.9952516219      -12.0182524200       -6.6314153645  MEMB      127             0.0000000000
     15818       127  QMPE      H11R           26.0153358301      -13.1085409168       -6.7143074976  MEMB      127             0.0000000000
     15819       127  QMPE      H11S           27.0171529111      -11.5866448225       -6.4953598804  MEMB      127             0.0000000000
     15820       127  QMPE      C212           25.2929391038      -12.0390151711       -5.2661356247  MEMB      127             0.0000000000
     15821       127  QMPE      H12R           25.5626390363      -11.0921331444       -4.7848712136  MEMB      127             0.0000000000
     15822       127  QMPE      H12S           25.8521933770      -11.9087966986       -4.3209490965  MEMB      127             0.0000000000
     15823       127  QMPE      C213           23.7543464807      -12.4616645917       -5.3387324921  MEMB      127             0.0000000000
     15824       127  QMPE      H13R           23.2613256493      -12.3290880364       -6.3231982336  MEMB      127             0.0000000000
     15825       127  QMPE      H13S           22.9296152906      -11.9338412039       -4.7696504341  MEMB      127             0.0000000000
     15826       127  QMPE      C214           23.5226402693      -13.7127918382       -4.6696433051  MEMB      127             0.0000000000
     15827       127  QMPE      H14R           23.7799098424      -14.3518390283       -5.5319912815  MEMB      127             0.0000000000
     15828       127  QMPE      H14S           22.4546422829      -13.6780734084       -4.3751372387  MEMB      127             0.0000000000
     15829       127  QMPE      C215           24.4317172087      -13.9192276205       -3.4713876035  MEMB      127             0.0000000000
     15830       127  QMPE      H15R           25.4826692078      -13.6440128213       -3.6706368310  MEMB      127             0.0000000000
     15831       127  QMPE      H15S           24.3105355639      -14.9779606333       -3.2654604026  MEMB      127             0.0000000000
     15832       127  QMPE      C216           24.0842581412      -13.2177257332       -2.2123531857  MEMB      127             0.0000000000
     15833       127  QMPE      H16R           23.0149120281      -13.4053916268       -1.9318813578  MEMB      127             0.0000000000
     15834       127  QMPE      H16S           24.2885903444      -12.1700442740       -2.5093867581  MEMB      127             0.0000000000
     15835       127  QMPE      H16T           24.6900140280      -13.3054040235       -1.3012056509  MEMB      127             0.0000000000
     15836       127  QMPE      C33            16.7924869731      -12.4761079566      -10.5680552683  MEMB      127             0.0000000000
     15837       127  QMPE      H3X            17.0303654305      -13.5549594309      -10.7382376303  MEMB      127             0.0000000000
     15838       127  QMPE      H3Y            15.7735364003      -12.3124288894      -10.9796057403  MEMB      127             0.0000000000
     15839       127  QMPE      C34            16.7955213579      -12.2565594300       -9.0542642031  MEMB      127             0.0000000000
     15840       127  QMPE      H4X            15.7540667670      -12.3492484550       -8.6643017732  MEMB      127             0.0000000000
     15841       127  QMPE      H4Y            17.1541190012      -11.2420383309       -8.7901295352  MEMB      127             0.0000000000
     15842       127  QMPE      C35            17.6304375433      -13.3574990456       -8.4144712446  MEMB      127             0.0000000000
     15843       127  QMPE      H5X            18.4961130561      -13.6604016430       -9.0465964035  MEMB      127             0.0000000000
     15844       127  QMPE      H5Y            16.9771759892      -14.2380432493       -8.3768767657  MEMB      127             0.0000000000
     15845       127  QMPE      C36            18.1944546146      -13.0637891867       -7.0376756257  MEMB      127             0.0000000000
     15846       127  QMPE      H6X            17.3871423551      -12.8101470029       -6.3023002778  MEMB      127             0.0000000000
     15847       127  QMPE      H6Y            18.9185178184      -12.2308697265       -7.1102386065  MEMB      127             0.0000000000
     15848       127  QMPE      C37            18.9637998840      -14.3044178560       -6.5870935978  MEMB      127             0.0000000000
     15849       127  QMPE      H7X            18.1471577794      -15.0238408128       -6.5590559826  MEMB      127             0.0000000000
     15850       127  QMPE      H7Y            19.5465082074      -14.8101101425       -7.3706654455  MEMB      127             0.0000000000
     15851       127  QMPE      C38            19.8951340740      -14.0411585692       -5.3784261606  MEMB      127             0.0000000000
     15852       127  QMPE      H8X            20.7303138613      -13.4849939459       -5.8620229789  MEMB      127             0.0000000000
     15853       127  QMPE      H8Y            19.4336683439      -13.3408299286       -4.6489927586  MEMB      127             0.0000000000
     15854       127  QMPE      C39            20.5740850200      -15.2576733559       -4.6817823548  MEMB      127             0.0000000000
     15855       127  QMPE      H9X            21.3708167129      -15.0101508178       -3.9819057766  MEMB      127             0.0000000000
     15856       127  QMPE      H9Y            20.8961872021      -16.0053513412       -5.4357476864  MEMB      127             0.0000000000
     15857       127  QMPE      C310           19.8113136099      -15.9407395434       -3.5868170715  MEMB      127             0.0000000000
     15858       127  QMPE      H10X           20.0924836515      -16.9557355232       -3.2534666775  MEMB      127             0.0000000000
     15859       127  QMPE      H10Y           19.0447762430      -16.0949252791       -4.3089567047  MEMB      127             0.0000000000
     15860       127  QMPE      C311           19.2006704656      -15.0605393726       -2.5241264501  MEMB      127             0.0000000000
     15861       127  QMPE      H11X           18.5014985004      -15.6525139931       -1.9149297351  MEMB      127             0.0000000000
     15862       127  QMPE      H11Y           18.6739327389      -14.2210822088       -3.0219510447  MEMB      127             0.0000000000
     15863       127  QMPE      C312           20.0251392224      -14.5526068974       -1.4422723352  MEMB      127             0.0000000000
     15864       127  QMPE      H12X           19.4246380837      -13.7666570429       -0.9201247504  MEMB      127             0.0000000000
     15865       127  QMPE      H12Y           20.8535378983      -14.1428630465       -2.0080758673  MEMB      127             0.0000000000
     15866       127  QMPE      C313           20.5412309434      -15.6428217667       -0.5772397936  MEMB      127             0.0000000000
     15867       127  QMPE      H13X           20.4701873554      -16.7027985388       -0.9722974133  MEMB      127             0.0000000000
     15868       127  QMPE      H13Y           21.4948140154      -15.3508846235       -0.1356213254  MEMB      127             0.0000000000
     15869       127  QMPE      C314           19.9129389262      -15.6355759349        0.6828402039  MEMB      127             0.0000000000
     15870       127  QMPE      H14X           19.1218372363      -16.3456107538        0.3946730804  MEMB      127             0.0000000000
     15871       127  QMPE      H14Y           19.6154150659      -14.7583476789        1.2904027135  MEMB      127             0.0000000000
     15872       127  QMPE      C315           20.2989779910      -16.5812383974        1.4626352649  MEMB      127             0.0000000000
     15873       127  QMPE      H15X           21.1020449801      -16.3242386502        2.0797135385  MEMB      127             0.0000000000
     15874       127  QMPE      H15Y           19.3527807832      -16.7048658532        2.0858818877  MEMB      127             0.0000000000
     15875       127  QMPE      H15Z           20.4878447951      -17.5220105711        0.8875867317  MEMB      127             0.0000000000
     15876       128  PYPG      C13             5.8368959717      -21.7414585900      -19.4248269361  MEMB      128             0.0000000000
     15877       128  PYPG      H13A            5.9315877719      -22.0722805125      -18.3602085875  MEMB      128             0.0000000000
     15878       128  PYPG      H13B            4.9431297418      -21.1284145250      -19.5536108915  MEMB      128             0.0000000000
     15879       128  PYPG      OC3             5.7116965139      -22.8626896685      -20.3079312259  MEMB      128             0.0000000000
     15880       128  PYPG      HO3             4.8755017634      -23.2961564408      -20.1101210052  MEMB      128             0.0000000000
     15881       128  PYPG      C12             7.0217055230      -20.8050413952      -19.7495087810  MEMB      128             0.0000000000
     15882       128  PYPG      H12A            7.0480576942      -19.9681391937      -19.0239405000  MEMB      128             0.0000000000
     15883       128  PYPG      OC2             6.8987864408      -20.2388819532      -21.0492575549  MEMB      128             0.0000000000
     15884       128  PYPG      HO2             7.7596266381      -19.9336107011      -21.3426762272  MEMB      128             0.0000000000
     15885       128  PYPG      C11             8.3268769290      -21.5679292509      -19.6665105533  MEMB      128             0.0000000000
     15886       128  PYPG      H11A            9.1671074286      -20.8265866414      -19.6341093945  MEMB      128             0.0000000000
     15887       128  PYPG      H11B            8.3508198742      -22.1310620127      -20.5981742775  MEMB      128             0.0000000000
     15888       128  PYPG      P               9.7188938187      -22.7907631186      -17.9733065263  MEMB      128             0.0000000000
     15889       128  PYPG      O13             9.9403360218      -21.6650894433      -17.0453483651  MEMB      128             0.0000000000
     15890       128  PYPG      O14            10.7000325035      -22.9760489426      -19.0573418386  MEMB      128             0.0000000000
     15891       128  PYPG      O11             9.5772161402      -24.1438149927      -17.1725415210  MEMB      128             0.0000000000
     15892       128  PYPG      O12             8.3115877023      -22.5393555082      -18.6103436177  MEMB      128             0.0000000000
     15893       128  PYPG      C1              8.3800352749      -24.9189863686      -17.0920261297  MEMB      128             0.0000000000
     15894       128  PYPG      HA              8.6770771601      -25.9946739138      -17.0232491289  MEMB      128             0.0000000000
     15895       128  PYPG      HB              7.7709400443      -24.8601916941      -18.0178037477  MEMB      128             0.0000000000
     15896       128  PYPG      C2              7.5377453498      -24.6136136034      -15.8047668028  MEMB      128             0.0000000000
     15897       128  PYPG      HS              6.7957562732      -25.4408122652      -15.7159352965  MEMB      128             0.0000000000
     15898       128  PYPG      O21             6.8774578616      -23.3174958297      -15.8518038523  MEMB      128             0.0000000000
     15899       128  PYPG      C21             6.1555507457      -22.9852885613      -14.7786287607  MEMB      128             0.0000000000
     15900       128  PYPG      O22             5.6564102575      -23.7728600753      -13.9949970971  MEMB      128             0.0000000000
     15901       128  PYPG      C22             5.9160255917      -21.4773853205      -14.6854877938  MEMB      128             0.0000000000
     15902       128  PYPG      H2R             5.1787228564      -21.2258176733      -13.9150867319  MEMB      128             0.0000000000
     15903       128  PYPG      H2S             5.4696334929      -21.1656040924      -15.5802115913  MEMB      128             0.0000000000
     15904       128  PYPG      C3              8.4587054735      -24.7015149213      -14.5649329531  MEMB      128             0.0000000000
     15905       128  PYPG      HX              9.0377136023      -25.6506075139      -14.6879880440  MEMB      128             0.0000000000
     15906       128  PYPG      HY              7.8405713374      -24.7648976398      -13.6459677779  MEMB      128             0.0000000000
     15907       128  PYPG      O31             9.2904043688      -23.5385997713      -14.4785698402  MEMB      128             0.0000000000
     15908       128  PYPG      C31            10.4477427912      -23.7704719406      -13.9555335802  MEMB      128             0.0000000000
     15909       128  PYPG      O32            10.8946880462      -24.8399110983      -13.6072495831  MEMB      128             0.0000000000
     15910       128  PYPG      C32            11.0337258123      -22.5052485593      -13.5323036486  MEMB      128             0.0000000000
     15911       128  PYPG      H2X            11.4053316546      -21.9437126496      -14.4068572795  MEMB      128             0.0000000000
     15912       128  PYPG      H2Y            10.3091453477      -21.9139635762      -12.9417033742  MEMB      128             0.0000000000
     15913       128  PYPG      C23             7.0239280765      -20.4530124183      -14.8867922385  MEMB      128             0.0000000000
     15914       128  PYPG      H3R             6.5828538542      -19.5444888864      -15.3783362288  MEMB      128             0.0000000000
     15915       128  PYPG      H3S             7.7657848560      -20.8861308389      -15.5986810137  MEMB      128             0.0000000000
     15916       128  PYPG      C24             7.5679105267      -20.0257593124      -13.5406620087  MEMB      128             0.0000000000
     15917       128  PYPG      H4R             8.4017011881      -19.3311840899      -13.7573124878  MEMB      128             0.0000000000
     15918       128  PYPG      H4S             7.9501611920      -20.9605905077      -13.0706574441  MEMB      128             0.0000000000
     15919       128  PYPG      C25             6.5949947889      -19.3150530483      -12.5650443374  MEMB      128             0.0000000000
     15920       128  PYPG      H5R             5.8014377609      -20.0336575917      -12.2499317485  MEMB      128             0.0000000000
     15921       128  PYPG      H5S             6.0979293678      -18.4441724651      -13.0489312129  MEMB      128             0.0000000000
     15922       128  PYPG      C26             7.3093837000      -18.8636449536      -11.2700587635  MEMB      128             0.0000000000
     15923       128  PYPG      H6R             8.0260791787      -19.6465513357      -10.9695857156  MEMB      128             0.0000000000
     15924       128  PYPG      H6S             6.6275235165      -18.7873064424      -10.4173983656  MEMB      128             0.0000000000
     15925       128  PYPG      C27             7.9305526025      -17.4680983860      -11.3034672587  MEMB      128             0.0000000000
     15926       128  PYPG      H7R             7.1255773100      -16.7237758807      -11.5099134719  MEMB      128             0.0000000000
     15927       128  PYPG      H7S             8.6663329485      -17.4491494337      -12.1344802702  MEMB      128             0.0000000000
     15928       128  PYPG      C28             8.6846895553      -17.0655357362      -10.0176879356  MEMB      128             0.0000000000
     15929       128  PYPG      H8R             9.0615113105      -16.0389651362      -10.1743054833  MEMB      128             0.0000000000
     15930       128  PYPG      H8S             9.5431310075      -17.7441932730       -9.8450629030  MEMB      128             0.0000000000
     15931       128  PYPG      C29             7.9447821012      -16.9926017131       -8.7451258895  MEMB      128             0.0000000000
     15932       128  PYPG      H9R             7.0698721194      -16.3121495975       -8.7518902496  MEMB      128             0.0000000000
     15933       128  PYPG      C210            7.8607039716      -18.0182854100       -7.9073815879  MEMB      128             0.0000000000
     15934       128  PYPG      H10R            7.1707750852      -17.9000226275       -7.0730456515  MEMB      128             0.0000000000
     15935       128  PYPG      C211            8.3729716898      -19.4168656162       -7.9171179407  MEMB      128             0.0000000000
     15936       128  PYPG      H11R            9.3732023854      -19.5304031792       -8.3606889680  MEMB      128             0.0000000000
     15937       128  PYPG      H11S            7.6158085609      -20.1050702486       -8.3479572023  MEMB      128             0.0000000000
     15938       128  PYPG      C212            8.3128497973      -19.8896341796       -6.5145833865  MEMB      128             0.0000000000
     15939       128  PYPG      H12R            8.8417930412      -20.8554918921       -6.3473677086  MEMB      128             0.0000000000
     15940       128  PYPG      H12S            7.2720851544      -20.0307394954       -6.1302177316  MEMB      128             0.0000000000
     15941       128  PYPG      C213            8.8623991857      -18.8684297684       -5.6494633009  MEMB      128             0.0000000000
     15942       128  PYPG      H13R            8.7433654477      -17.7741873217       -5.7062142471  MEMB      128             0.0000000000
     15943       128  PYPG      H13S            9.9226758969      -18.8278709442       -5.9140700171  MEMB      128             0.0000000000
     15944       128  PYPG      C214            8.3244313863      -19.4711002147       -4.3753493519  MEMB      128             0.0000000000
     15945       128  PYPG      H14R            8.8107875100      -20.3368771517       -3.8952426262  MEMB      128             0.0000000000
     15946       128  PYPG      H14S            8.8051059627      -18.6717078187       -3.9493432809  MEMB      128             0.0000000000
     15947       128  PYPG      C215            7.1911565783      -19.0126073227       -3.6045588423  MEMB      128             0.0000000000
     15948       128  PYPG      H15R            6.3241347887      -19.3321181862       -4.1702552535  MEMB      128             0.0000000000
     15949       128  PYPG      H15S            7.1306811835      -17.8853545643       -3.6297808996  MEMB      128             0.0000000000
     15950       128  PYPG      C216            7.5668570860      -19.5902158667       -2.2059651479  MEMB      128             0.0000000000
     15951       128  PYPG      H16R            8.1393613711      -18.8712929442       -1.5937414100  MEMB      128             0.0000000000
     15952       128  PYPG      H16S            7.8692958403      -20.5911492152       -2.0123637087  MEMB      128             0.0000000000
     15953       128  PYPG      H16T            6.7607059932      -19.8188499236       -1.5532363130  MEMB      128             0.0000000000
     15954       128  PYPG      C33            12.1145310753      -22.8180947316      -12.5582227494  MEMB      128             0.0000000000
     15955       128  PYPG      H3X            12.9304878716      -23.3735458735      -13.0001106436  MEMB      128             0.0000000000
     15956       128  PYPG      H3Y            11.9060464503      -23.3669349382      -11.6413198224  MEMB      128             0.0000000000
     15957       128  PYPG      C34            12.6524208435      -21.5153033895      -12.2515881958  MEMB      128             0.0000000000
     15958       128  PYPG      H4X            12.8380859636      -21.0616253630      -13.2422014306  MEMB      128             0.0000000000
     15959       128  PYPG      H4Y            13.6345313187      -21.8222527018      -12.0550662905  MEMB      128             0.0000000000
     15960       128  PYPG      C35            12.0382699975      -20.6907426604      -11.0794790201  MEMB      128             0.0000000000
     15961       128  PYPG      H5X            11.1773271031      -20.0579284435      -11.3370865339  MEMB      128             0.0000000000
     15962       128  PYPG      H5Y            12.7374460703      -19.8466481450      -10.8322949019  MEMB      128             0.0000000000
     15963       128  PYPG      C36            11.9311905013      -21.4121791522       -9.8006675432  MEMB      128             0.0000000000
     15964       128  PYPG      H6X            12.6401326214      -22.2722594896       -9.7679945725  MEMB      128             0.0000000000
     15965       128  PYPG      H6Y            10.9289487735      -21.8389135066       -9.7331260257  MEMB      128             0.0000000000
     15966       128  PYPG      C37            12.3005085464      -20.4828450847       -8.6855762473  MEMB      128             0.0000000000
     15967       128  PYPG      H7X            13.2293851390      -19.8656791219       -8.8353201461  MEMB      128             0.0000000000
     15968       128  PYPG      H7Y            11.6595687551      -19.6155333098       -8.5084134562  MEMB      128             0.0000000000
     15969       128  PYPG      C38            12.4752378514      -21.3590299649       -7.4793410977  MEMB      128             0.0000000000
     15970       128  PYPG      H8X            12.8982021460      -20.5564316076       -7.0269093580  MEMB      128             0.0000000000
     15971       128  PYPG      H8Y            13.3383685547      -21.8655277289       -7.2198862193  MEMB      128             0.0000000000
     15972       128  PYPG      C39            11.3710856304      -22.1823465522       -6.9243034472  MEMB      128             0.0000000000
     15973       128  PYPG      H9X            11.5009416793      -23.0346513455       -7.6137356614  MEMB      128             0.0000000000
     15974       128  PYPG      H9Y            10.4812148366      -21.5886694109       -7.1297395626  MEMB      128             0.0000000000
     15975       128  PYPG      C310           11.4366699812      -22.8494471749       -5.5368664182  MEMB      128             0.0000000000
     15976       128  PYPG      H10X           12.4365794367      -23.2836981792       -5.3201593058  MEMB      128             0.0000000000
     15977       128  PYPG      H10Y           10.5960169466      -23.5641785448       -5.4587645772  MEMB      128             0.0000000000
     15978       128  PYPG      C311           11.2191662220      -22.0710098240       -4.3220879172  MEMB      128             0.0000000000
     15979       128  PYPG      H11X           10.4508129126      -21.3263527347       -4.5261820750  MEMB      128             0.0000000000
     15980       128  PYPG      H11Y           12.2894633305      -21.7819739944       -4.1030602119  MEMB      128             0.0000000000
     15981       128  PYPG      C312           10.7777039539      -22.6896460653       -3.0246835365  MEMB      128             0.0000000000
     15982       128  PYPG      H12X            9.9047141987      -23.3087114100       -3.1391572492  MEMB      128             0.0000000000
     15983       128  PYPG      H12Y           11.5645866153      -23.4065824378       -3.0596273991  MEMB      128             0.0000000000
     15984       128  PYPG      C313           10.5481729609      -21.7260589197       -1.8247017808  MEMB      128             0.0000000000
     15985       128  PYPG      H13X           11.3851468577      -21.1151840366       -1.4136902147  MEMB      128             0.0000000000
     15986       128  PYPG      H13Y           10.0336906470      -20.9012388952       -2.3217930785  MEMB      128             0.0000000000
     15987       128  PYPG      C314            9.4325638489      -22.1546857707       -0.8695197439  MEMB      128             0.0000000000
     15988       128  PYPG      H14X            9.1850490883      -21.3313568876       -0.1554146353  MEMB      128             0.0000000000
     15989       128  PYPG      H14Y            8.6130919693      -22.6342224668       -1.4334611982  MEMB      128             0.0000000000
     15990       128  PYPG      C315            9.7145152469      -23.1645748069        0.1158602660  MEMB      128             0.0000000000
     15991       128  PYPG      H15X            8.9967303641      -23.6966298807        0.7513787692  MEMB      128             0.0000000000
     15992       128  PYPG      H15Y           10.0306553778      -24.0351305470       -0.5569251393  MEMB      128             0.0000000000
     15993       128  PYPG      C316           10.4796625172      -22.3145722805        1.1925705333  MEMB      128             0.0000000000
     15994       128  PYPG      H16X           10.6073646162      -22.9289872341        2.1171620284  MEMB      128             0.0000000000
     15995       128  PYPG      H16Y           11.2871755560      -21.5524498301        1.1157790059  MEMB      128             0.0000000000
     15996       128  PYPG      H16Z           11.3654797846      -22.4465565680        0.6226733474  MEMB      128             0.0000000000
     15997       129  PYPG      C13           -16.7980504269      -17.4960165415      -19.2411269626  MEMB      129             0.0000000000
     15998       129  PYPG      H13A          -16.0947876441      -16.7981015417      -19.7575935692  MEMB      129             0.0000000000
     15999       129  PYPG      H13B          -17.8205312197      -17.3084328754      -19.6287579502  MEMB      129             0.0000000000
     16000       129  PYPG      OC3           -16.8558677212      -17.2070441080      -17.8468288015  MEMB      129             0.0000000000
     16001       129  PYPG      HO3           -15.9395060654      -17.2099383008      -17.5621974937  MEMB      129             0.0000000000
     16002       129  PYPG      C12           -16.3712810083      -18.9688101863      -19.5383585931  MEMB      129             0.0000000000
     16003       129  PYPG      H12A          -16.0930555454      -19.0092316118      -20.6154602725  MEMB      129             0.0000000000
     16004       129  PYPG      OC2           -17.4796795187      -19.8424077566      -19.3636163875  MEMB      129             0.0000000000
     16005       129  PYPG      HO2           -17.1070172410      -20.7292872901      -19.3820862848  MEMB      129             0.0000000000
     16006       129  PYPG      C11           -15.1451444154      -19.5212273828      -18.7511391416  MEMB      129             0.0000000000
     16007       129  PYPG      H11A          -14.9899435221      -20.5784799007      -19.0698852245  MEMB      129             0.0000000000
     16008       129  PYPG      H11B          -15.3425787509      -19.5571271099      -17.6569009980  MEMB      129             0.0000000000
     16009       129  PYPG      P             -12.5031506828      -19.2452457838      -19.0974706960  MEMB      129             0.0000000000
     16010       129  PYPG      O13           -11.5594589392      -18.1372283903      -18.8881417713  MEMB      129             0.0000000000
     16011       129  PYPG      O14           -12.3394566123      -20.0836693425      -20.3202618460  MEMB      129             0.0000000000
     16012       129  PYPG      O11           -12.4744140320      -20.2905444827      -17.9056340429  MEMB      129             0.0000000000
     16013       129  PYPG      O12           -14.0014815037      -18.7158148988      -19.0285429025  MEMB      129             0.0000000000
     16014       129  PYPG      C1            -12.3320463804      -19.9343987177      -16.5304830682  MEMB      129             0.0000000000
     16015       129  PYPG      HA            -12.7835799163      -18.9429563964      -16.2922884189  MEMB      129             0.0000000000
     16016       129  PYPG      HB            -11.2516330563      -19.8765201624      -16.2664378706  MEMB      129             0.0000000000
     16017       129  PYPG      C2            -12.9879647203      -21.0196126707      -15.6405620394  MEMB      129             0.0000000000
     16018       129  PYPG      HS            -12.5219240188      -21.9988040287      -15.9253935120  MEMB      129             0.0000000000
     16019       129  PYPG      O21           -14.3872544773      -21.0245987271      -15.8962280515  MEMB      129             0.0000000000
     16020       129  PYPG      C21           -15.0248402615      -22.1614447814      -15.7916381674  MEMB      129             0.0000000000
     16021       129  PYPG      O22           -14.5398275162      -23.2426932819      -15.5117938577  MEMB      129             0.0000000000
     16022       129  PYPG      C22           -16.4638419607      -21.8194978682      -16.0758963483  MEMB      129             0.0000000000
     16023       129  PYPG      H2R           -16.6474759948      -21.9286892601      -17.1592324450  MEMB      129             0.0000000000
     16024       129  PYPG      H2S           -16.6528389405      -20.7469048363      -15.8149952627  MEMB      129             0.0000000000
     16025       129  PYPG      C3            -12.7199181242      -20.7994218269      -14.1259850914  MEMB      129             0.0000000000
     16026       129  PYPG      HX            -11.6292359219      -20.5716668221      -14.0682263764  MEMB      129             0.0000000000
     16027       129  PYPG      HY            -12.9271006076      -21.7726588101      -13.6343056746  MEMB      129             0.0000000000
     16028       129  PYPG      O31           -13.5640815801      -19.8012788218      -13.4996378588  MEMB      129             0.0000000000
     16029       129  PYPG      C31           -12.9335517708      -18.9546833776      -12.6797367942  MEMB      129             0.0000000000
     16030       129  PYPG      O32           -11.7323569758      -18.8321333523      -12.5794706918  MEMB      129             0.0000000000
     16031       129  PYPG      C32           -13.9516882530      -18.2015167023      -11.8414486637  MEMB      129             0.0000000000
     16032       129  PYPG      H2X           -14.5570704923      -18.9416452637      -11.2848789883  MEMB      129             0.0000000000
     16033       129  PYPG      H2Y           -13.4416315115      -17.5757179340      -11.0778322114  MEMB      129             0.0000000000
     16034       129  PYPG      C23           -17.4800360565      -22.6373707179      -15.2878769155  MEMB      129             0.0000000000
     16035       129  PYPG      H3R           -17.8053982510      -23.5892538661      -15.7587310700  MEMB      129             0.0000000000
     16036       129  PYPG      H3S           -18.3202022086      -21.9461028343      -15.4838639283  MEMB      129             0.0000000000
     16037       129  PYPG      C24           -17.1688037878      -22.9122248663      -13.7812167413  MEMB      129             0.0000000000
     16038       129  PYPG      H4R           -16.5948752141      -23.8469172525      -13.7452037463  MEMB      129             0.0000000000
     16039       129  PYPG      H4S           -18.0239758067      -23.2357989450      -13.1595342725  MEMB      129             0.0000000000
     16040       129  PYPG      C25           -16.5548773926      -21.7836053778      -12.9523775153  MEMB      129             0.0000000000
     16041       129  PYPG      H5R           -17.0901755212      -20.8131163211      -13.0858378059  MEMB      129             0.0000000000
     16042       129  PYPG      H5S           -15.5179332295      -21.6437349143      -13.3215997061  MEMB      129             0.0000000000
     16043       129  PYPG      C26           -16.3830559066      -22.1725001672      -11.4603626632  MEMB      129             0.0000000000
     16044       129  PYPG      H6R           -15.9781198550      -21.2613373891      -10.9661169863  MEMB      129             0.0000000000
     16045       129  PYPG      H6S           -15.6451625053      -22.9986900607      -11.4405418608  MEMB      129             0.0000000000
     16046       129  PYPG      C27           -17.5964008893      -22.5781752414      -10.5963359904  MEMB      129             0.0000000000
     16047       129  PYPG      H7R           -17.2531185449      -22.8970269298       -9.5871695414  MEMB      129             0.0000000000
     16048       129  PYPG      H7S           -18.0816730480      -23.4707443456      -11.0484873982  MEMB      129             0.0000000000
     16049       129  PYPG      C28           -18.4367308304      -21.2904740318      -10.4635426124  MEMB      129             0.0000000000
     16050       129  PYPG      H8R           -18.6852730791      -21.0744866370      -11.5204283889  MEMB      129             0.0000000000
     16051       129  PYPG      H8S           -17.8336012775      -20.4653088349      -10.0877411842  MEMB      129             0.0000000000
     16052       129  PYPG      C29           -19.7540623341      -21.1055619219       -9.8439957453  MEMB      129             0.0000000000
     16053       129  PYPG      H9R           -20.1839665517      -22.0638606404       -9.7815019794  MEMB      129             0.0000000000
     16054       129  PYPG      C210          -20.2729019272      -20.5848308330       -8.8261106854  MEMB      129             0.0000000000
     16055       129  PYPG      H10R          -21.2728265195      -20.9829361394       -8.5347933923  MEMB      129             0.0000000000
     16056       129  PYPG      C211          -19.3521474990      -19.9697188522       -7.8773748381  MEMB      129             0.0000000000
     16057       129  PYPG      H11R          -19.9453874150      -19.1685856576       -7.4379264408  MEMB      129             0.0000000000
     16058       129  PYPG      H11S          -18.2580240416      -19.9754335410       -8.0873417194  MEMB      129             0.0000000000
     16059       129  PYPG      C212          -19.0544899761      -20.9486041287       -6.8392021487  MEMB      129             0.0000000000
     16060       129  PYPG      H12R          -18.8416658863      -21.9112937688       -7.2680450918  MEMB      129             0.0000000000
     16061       129  PYPG      H12S          -20.1067452394      -21.1379432970       -6.6366193744  MEMB      129             0.0000000000
     16062       129  PYPG      C213          -18.0514831355      -20.6601285747       -5.6640784233  MEMB      129             0.0000000000
     16063       129  PYPG      H13R          -18.1923227659      -21.3796501069       -4.8287545210  MEMB      129             0.0000000000
     16064       129  PYPG      H13S          -18.2007860434      -19.6378025958       -5.2737067646  MEMB      129             0.0000000000
     16065       129  PYPG      C214          -16.5880654010      -21.1133752450       -5.7140317904  MEMB      129             0.0000000000
     16066       129  PYPG      H14R          -16.5490864912      -22.2086760587       -5.8914165475  MEMB      129             0.0000000000
     16067       129  PYPG      H14S          -16.3122973471      -20.5260376036       -6.5866996289  MEMB      129             0.0000000000
     16068       129  PYPG      C215          -15.6113933965      -20.7955005557       -4.5425961117  MEMB      129             0.0000000000
     16069       129  PYPG      H15R          -15.9027103631      -19.8274344418       -4.0765513258  MEMB      129             0.0000000000
     16070       129  PYPG      H15S          -14.5806869651      -20.6594060668       -4.8824384576  MEMB      129             0.0000000000
     16071       129  PYPG      C216          -15.4065557901      -21.8733464051       -3.4912903893  MEMB      129             0.0000000000
     16072       129  PYPG      H16R          -15.2512783887      -21.3587039489       -2.4878282564  MEMB      129             0.0000000000
     16073       129  PYPG      H16S          -14.9685408380      -22.8588996380       -3.5195894024  MEMB      129             0.0000000000
     16074       129  PYPG      H16T          -16.4072096310      -22.3710658619       -3.5553276915  MEMB      129             0.0000000000
     16075       129  PYPG      C33           -14.7957653585      -17.3487821793      -12.8047935130  MEMB      129             0.0000000000
     16076       129  PYPG      H3X           -15.1914011412      -17.9960439549      -13.6239999934  MEMB      129             0.0000000000
     16077       129  PYPG      H3Y           -14.1200069273      -16.5872385856      -13.2561686162  MEMB      129             0.0000000000
     16078       129  PYPG      C34           -16.0167594170      -16.7250412195      -12.1369001057  MEMB      129             0.0000000000
     16079       129  PYPG      H4X           -16.5356375180      -15.9908501457      -12.7971260025  MEMB      129             0.0000000000
     16080       129  PYPG      H4Y           -15.6649214059      -16.1717313379      -11.2381465848  MEMB      129             0.0000000000
     16081       129  PYPG      C35           -17.0430287620      -17.8051477015      -11.7815845440  MEMB      129             0.0000000000
     16082       129  PYPG      H5X           -16.5639126177      -18.7900567490      -11.5989541143  MEMB      129             0.0000000000
     16083       129  PYPG      H5Y           -17.7722677768      -17.9204396287      -12.6137938397  MEMB      129             0.0000000000
     16084       129  PYPG      C36           -17.7705919968      -17.4763811919      -10.5112065040  MEMB      129             0.0000000000
     16085       129  PYPG      H6X           -18.7397612420      -18.0173704243      -10.4504772769  MEMB      129             0.0000000000
     16086       129  PYPG      H6Y           -17.9533638981      -16.3791720505      -10.5064355011  MEMB      129             0.0000000000
     16087       129  PYPG      C37           -16.9489815403      -17.8499987704       -9.3034850591  MEMB      129             0.0000000000
     16088       129  PYPG      H7X           -16.8963114567      -18.9264040820       -9.0627145834  MEMB      129             0.0000000000
     16089       129  PYPG      H7Y           -15.9158332722      -17.4350179334       -9.3316156653  MEMB      129             0.0000000000
     16090       129  PYPG      C38           -17.6145616898      -17.2764609697       -8.1283393913  MEMB      129             0.0000000000
     16091       129  PYPG      H8X           -18.6671986584      -17.6244342232       -8.0048464173  MEMB      129             0.0000000000
     16092       129  PYPG      H8Y           -17.7331597611      -16.2237821739       -8.3830136309  MEMB      129             0.0000000000
     16093       129  PYPG      C39           -16.7015952448      -17.6409433162       -6.9637412587  MEMB      129             0.0000000000
     16094       129  PYPG      H9X           -16.8399968631      -18.6003313065       -6.4857819525  MEMB      129             0.0000000000
     16095       129  PYPG      H9Y           -17.3841379537      -17.3949663471       -6.2591016727  MEMB      129             0.0000000000
     16096       129  PYPG      C310          -15.4165478624      -16.7874159475       -6.6982939003  MEMB      129             0.0000000000
     16097       129  PYPG      H10X          -15.6302708176      -15.7282266013       -6.9733450373  MEMB      129             0.0000000000
     16098       129  PYPG      H10Y          -14.6991746980      -17.1892702623       -7.4239293793  MEMB      129             0.0000000000
     16099       129  PYPG      C311          -14.7797776683      -16.7563330934       -5.2591877545  MEMB      129             0.0000000000
     16100       129  PYPG      H11X          -13.8123413975      -16.2517764445       -5.2001020886  MEMB      129             0.0000000000
     16101       129  PYPG      H11Y          -14.7561360803      -17.8188438150       -4.8916316329  MEMB      129             0.0000000000
     16102       129  PYPG      C312          -15.4247167687      -15.9065686733       -4.1631487320  MEMB      129             0.0000000000
     16103       129  PYPG      H12X          -15.9884285878      -14.9675087131       -4.2683539631  MEMB      129             0.0000000000
     16104       129  PYPG      H12Y          -16.1439076088      -16.6572519863       -4.2009009678  MEMB      129             0.0000000000
     16105       129  PYPG      C313          -14.8506052551      -15.6058221805       -2.8457820190  MEMB      129             0.0000000000
     16106       129  PYPG      H13X          -14.2041948411      -14.7697870298       -3.1421031476  MEMB      129             0.0000000000
     16107       129  PYPG      H13Y          -15.4642150204      -14.9301583811       -2.2837452120  MEMB      129             0.0000000000
     16108       129  PYPG      C314          -14.2308054143      -16.7736667064       -2.0905437962  MEMB      129             0.0000000000
     16109       129  PYPG      H14X          -13.7959729840      -17.3628293444       -2.8875023198  MEMB      129             0.0000000000
     16110       129  PYPG      H14Y          -13.6002324754      -16.1956221815       -1.3786758261  MEMB      129             0.0000000000
     16111       129  PYPG      C315          -14.8611009924      -18.0160096444       -1.4450402049  MEMB      129             0.0000000000
     16112       129  PYPG      H15X          -15.5736612528      -18.6941470635       -1.9299446974  MEMB      129             0.0000000000
     16113       129  PYPG      H15Y          -14.3014735545      -18.5614912585       -0.6276933403  MEMB      129             0.0000000000
     16114       129  PYPG      C316          -15.7197482676      -17.4529179458       -0.6230994492  MEMB      129             0.0000000000
     16115       129  PYPG      H16X          -16.3352692373      -16.6573934857       -0.9039634814  MEMB      129             0.0000000000
     16116       129  PYPG      H16Y          -14.9928115550      -17.0009757387        0.0632931707  MEMB      129             0.0000000000
     16117       129  PYPG      H16Z          -16.4251995027      -18.1563226234       -0.1820857254  MEMB      129             0.0000000000
     16118       130  PMPE      N               0.3358159718      -26.7395045426      -19.7052152542  MEMB      130             0.0000000000
     16119       130  PMPE      HN1             0.7092157016      -26.3721307233      -18.8021935471  MEMB      130             0.0000000000
     16120       130  PMPE      HN2             0.3776704151      -27.7811725087      -19.6971517095  MEMB      130             0.0000000000
     16121       130  PMPE      HN3             0.9331969003      -26.4219171154      -20.4908451497  MEMB      130             0.0000000000
     16122       130  PMPE      C12            -1.1005264611      -26.2666184535      -19.8632932185  MEMB      130             0.0000000000
     16123       130  PMPE      H12A           -1.6776407082      -26.6841188607      -19.0110294215  MEMB      130             0.0000000000
     16124       130  PMPE      H12B           -1.4852380544      -26.6727967107      -20.8177890320  MEMB      130             0.0000000000
     16125       130  PMPE      C11            -1.2579760072      -24.7322008309      -19.8479774844  MEMB      130             0.0000000000
     16126       130  PMPE      H11A           -2.3444471950      -24.4648566324      -19.9429537052  MEMB      130             0.0000000000
     16127       130  PMPE      H11B           -0.7319529484      -24.3185925635      -20.7366213361  MEMB      130             0.0000000000
     16128       130  PMPE      P              -0.5478637204      -22.6107548265      -18.5316458218  MEMB      130             0.0000000000
     16129       130  PMPE      O13            -1.5756320753      -22.0617523435      -17.6402704889  MEMB      130             0.0000000000
     16130       130  PMPE      O14            -0.4137699891      -22.0951049424      -19.9231039624  MEMB      130             0.0000000000
     16131       130  PMPE      O11             0.8245789433      -22.5198181197      -17.8220325616  MEMB      130             0.0000000000
     16132       130  PMPE      O12            -0.7060855909      -24.2001554648      -18.6437716270  MEMB      130             0.0000000000
     16133       130  PMPE      C1              1.9900888029      -23.1551649744      -18.2885861934  MEMB      130             0.0000000000
     16134       130  PMPE      HA              2.3550992887      -22.6600986397      -19.2215359425  MEMB      130             0.0000000000
     16135       130  PMPE      HB              1.8088431871      -24.2276654924      -18.4744287841  MEMB      130             0.0000000000
     16136       130  PMPE      C2              3.0711920126      -22.9698614119      -17.2240132886  MEMB      130             0.0000000000
     16137       130  PMPE      HS              3.9934436128      -23.5523143152      -17.4675741000  MEMB      130             0.0000000000
     16138       130  PMPE      O21             2.6936566005      -23.2653623226      -15.8743562810  MEMB      130             0.0000000000
     16139       130  PMPE      C21             2.1547889901      -24.4107336749      -15.6749260263  MEMB      130             0.0000000000
     16140       130  PMPE      O22             2.2225496940      -25.3838444406      -16.4223390586  MEMB      130             0.0000000000
     16141       130  PMPE      C22             1.4783716624      -24.3147431900      -14.2986913456  MEMB      130             0.0000000000
     16142       130  PMPE      H2R             0.3974698828      -24.5700306451      -14.3510158535  MEMB      130             0.0000000000
     16143       130  PMPE      H2S             1.7946351786      -23.4685661253      -13.6741479287  MEMB      130             0.0000000000
     16144       130  PMPE      C3              3.4446570632      -21.4884118445      -17.2268579815  MEMB      130             0.0000000000
     16145       130  PMPE      HX              3.9071229095      -21.0504403017      -18.0775577709  MEMB      130             0.0000000000
     16146       130  PMPE      HY              4.2634996954      -21.5947184532      -16.6238654056  MEMB      130             0.0000000000
     16147       130  PMPE      O31             2.4953067475      -20.5571079316      -16.7510747989  MEMB      130             0.0000000000
     16148       130  PMPE      C31             2.3821484564      -20.3120600540      -15.4823246810  MEMB      130             0.0000000000
     16149       130  PMPE      O32             3.1269058918      -20.6412802085      -14.5802323458  MEMB      130             0.0000000000
     16150       130  PMPE      C32             1.0537275792      -19.6527203704      -15.2900305687  MEMB      130             0.0000000000
     16151       130  PMPE      H2X             0.5588021024      -19.5840183275      -16.2844566758  MEMB      130             0.0000000000
     16152       130  PMPE      H2Y             1.1938668664      -18.6267323441      -14.9026862330  MEMB      130             0.0000000000
     16153       130  PMPE      C23             2.0716531726      -25.3590598693      -13.4786315272  MEMB      130             0.0000000000
     16154       130  PMPE      H3R             3.1811579165      -25.3150553274      -13.5374155749  MEMB      130             0.0000000000
     16155       130  PMPE      H3S             1.6213731231      -26.0851116412      -14.1520886262  MEMB      130             0.0000000000
     16156       130  PMPE      C24             1.6032175305      -25.6435950324      -12.0860094669  MEMB      130             0.0000000000
     16157       130  PMPE      H4R             2.3911812529      -25.1771378125      -11.4345043436  MEMB      130             0.0000000000
     16158       130  PMPE      H4S             1.5112995243      -26.7620562849      -12.0810509527  MEMB      130             0.0000000000
     16159       130  PMPE      C25             0.2725169865      -25.4004320350      -11.5071810152  MEMB      130             0.0000000000
     16160       130  PMPE      H5R            -0.4571674650      -26.0950042866      -11.9632661496  MEMB      130             0.0000000000
     16161       130  PMPE      H5S             0.1501494585      -24.3249354332      -11.6926657861  MEMB      130             0.0000000000
     16162       130  PMPE      C26             0.2510343443      -25.7064364395      -10.0215439881  MEMB      130             0.0000000000
     16163       130  PMPE      H6R            -0.6933298092      -25.3476577022       -9.6226272180  MEMB      130             0.0000000000
     16164       130  PMPE      H6S             0.9264729093      -24.9465228014       -9.6060938999  MEMB      130             0.0000000000
     16165       130  PMPE      C27             0.3761284356      -27.2107486043       -9.6792557978  MEMB      130             0.0000000000
     16166       130  PMPE      H7R             1.3159701950      -27.6414111965       -9.7188183671  MEMB      130             0.0000000000
     16167       130  PMPE      H7S            -0.0413177649      -27.9236895967      -10.4172274213  MEMB      130             0.0000000000
     16168       130  PMPE      C28             0.0999493310      -27.6167807381       -8.2443010245  MEMB      130             0.0000000000
     16169       130  PMPE      H8R             0.5150707904      -27.1479104387       -7.3459383426  MEMB      130             0.0000000000
     16170       130  PMPE      H8S             0.3395957379      -28.6807260135       -8.2062022270  MEMB      130             0.0000000000
     16171       130  PMPE      C29            -1.2082893916      -27.3447174351       -8.3351904663  MEMB      130             0.0000000000
     16172       130  PMPE      H9R            -1.6098155629      -27.9394515366       -9.1753650830  MEMB      130             0.0000000000
     16173       130  PMPE      C217           -1.9550967115      -26.1070717488       -7.8699349719  MEMB      130             0.0000000000
     16174       130  PMPE      H17R           -3.0042703717      -26.0732818333       -8.1368051893  MEMB      130             0.0000000000
     16175       130  PMPE      H17S           -1.3489249969      -25.3460120334       -7.4328737047  MEMB      130             0.0000000000
     16176       130  PMPE      C210           -1.8022352743      -27.2494826421       -6.9882855406  MEMB      130             0.0000000000
     16177       130  PMPE      H10R           -2.0357298947      -28.2028114096       -7.1003009825  MEMB      130             0.0000000000
     16178       130  PMPE      C211           -1.2565527273      -27.1355804434       -5.6701284197  MEMB      130             0.0000000000
     16179       130  PMPE      H11R           -2.0454652611      -26.8029670010       -4.9711202647  MEMB      130             0.0000000000
     16180       130  PMPE      H11S           -0.5181847613      -26.3510064627       -5.7147952189  MEMB      130             0.0000000000
     16181       130  PMPE      C212           -1.0066356225      -28.5098650367       -5.0766416964  MEMB      130             0.0000000000
     16182       130  PMPE      H12R           -0.3877046657      -29.0803050470       -5.5890954235  MEMB      130             0.0000000000
     16183       130  PMPE      H12S           -1.3541843691      -29.5521892952       -5.0810077465  MEMB      130             0.0000000000
     16184       130  PMPE      C213           -0.9461572594      -28.4532432715       -3.6764359180  MEMB      130             0.0000000000
     16185       130  PMPE      H13R           -1.0351159915      -29.4809575037       -3.2860407765  MEMB      130             0.0000000000
     16186       130  PMPE      H13S           -1.3129998181      -27.8044072749       -2.9095076226  MEMB      130             0.0000000000
     16187       130  PMPE      C214            0.1284306063      -27.8039233370       -3.5363439559  MEMB      130             0.0000000000
     16188       130  PMPE      H14R            0.4753050432      -26.8861698915       -4.1935132099  MEMB      130             0.0000000000
     16189       130  PMPE      H14S            0.7933892157      -28.0228953392       -4.6560566801  MEMB      130             0.0000000000
     16190       130  PMPE      C215            0.8895484096      -28.3743917577       -1.6274486653  MEMB      130             0.0000000000
     16191       130  PMPE      H15R            2.0750380452      -28.7007444134       -1.5271715986  MEMB      130             0.0000000000
     16192       130  PMPE      H15S            1.5095776617      -29.3095629524       -1.2571454823  MEMB      130             0.0000000000
     16193       130  PMPE      C216            0.7033295239      -27.5566148016       -0.5202186535  MEMB      130             0.0000000000
     16194       130  PMPE      H16R            0.7302570891      -26.5961227046       -1.0328541387  MEMB      130             0.0000000000
     16195       130  PMPE      H16S           -0.3238858339      -27.5008058577       -0.8154981451  MEMB      130             0.0000000000
     16196       130  PMPE      H16T            1.4703900815      -26.8786498633       -0.0571364557  MEMB      130             0.0000000000
     16197       130  PMPE      C33             0.2365079147      -20.6236309649      -14.4429214776  MEMB      130             0.0000000000
     16198       130  PMPE      H3X             0.7595127496      -20.9611409112      -13.5194757390  MEMB      130             0.0000000000
     16199       130  PMPE      H3Y             0.0577776324      -21.5405178514      -15.0598893847  MEMB      130             0.0000000000
     16200       130  PMPE      C34            -1.1128983382      -20.0590862996      -14.1019422872  MEMB      130             0.0000000000
     16201       130  PMPE      H4X            -1.6145850873      -19.6671656966      -15.0229546413  MEMB      130             0.0000000000
     16202       130  PMPE      H4Y            -1.0023293939      -19.2016440129      -13.4012483184  MEMB      130             0.0000000000
     16203       130  PMPE      C35            -2.0006143199      -21.1501839652      -13.5279881310  MEMB      130             0.0000000000
     16204       130  PMPE      H5X            -2.4839309092      -21.7497750856      -14.3258440649  MEMB      130             0.0000000000
     16205       130  PMPE      H5Y            -2.7918715227      -20.5902240855      -13.0947230118  MEMB      130             0.0000000000
     16206       130  PMPE      C36            -1.4880202887      -22.0542898590      -12.3975821728  MEMB      130             0.0000000000
     16207       130  PMPE      H6X            -0.6522641618      -22.6775373127      -12.7649835741  MEMB      130             0.0000000000
     16208       130  PMPE      H6Y            -2.3603514264      -22.7167734641      -12.1672301734  MEMB      130             0.0000000000
     16209       130  PMPE      C37            -1.1210564594      -21.3635674446      -11.0805664976  MEMB      130             0.0000000000
     16210       130  PMPE      H7X            -2.0296971188      -20.9855303672      -10.6237642528  MEMB      130             0.0000000000
     16211       130  PMPE      H7Y            -0.4206163103      -20.5099142581      -11.1771267672  MEMB      130             0.0000000000
     16212       130  PMPE      C38            -0.9175215302      -22.3020818195       -9.9054122114  MEMB      130             0.0000000000
     16213       130  PMPE      H8X            -0.0109676862      -22.8999491120      -10.0503852172  MEMB      130             0.0000000000
     16214       130  PMPE      H8Y            -1.8346640018      -22.9458678619       -9.8249725607  MEMB      130             0.0000000000
     16215       130  PMPE      C39            -0.6909913891      -21.5516643672       -8.6108030681  MEMB      130             0.0000000000
     16216       130  PMPE      H9X            -1.5342805281      -20.9050027242       -8.4230235264  MEMB      130             0.0000000000
     16217       130  PMPE      H9Y             0.1993064041      -20.8990113530       -8.7210231270  MEMB      130             0.0000000000
     16218       130  PMPE      C310           -0.5696648887      -22.4935294912       -7.4275753666  MEMB      130             0.0000000000
     16219       130  PMPE      H10X            0.0807633846      -23.3325138165       -7.6800485609  MEMB      130             0.0000000000
     16220       130  PMPE      H10Y           -1.5960225664      -22.8494098563       -7.1254441520  MEMB      130             0.0000000000
     16221       130  PMPE      C311            0.0973924181      -21.8324434713       -6.2482424272  MEMB      130             0.0000000000
     16222       130  PMPE      H11X           -0.8604600402      -21.6831896192       -5.7649203324  MEMB      130             0.0000000000
     16223       130  PMPE      H11Y            0.6449703274      -20.8966337393       -6.4776066104  MEMB      130             0.0000000000
     16224       130  PMPE      C312            0.7848688393      -22.6142687878       -5.1523435462  MEMB      130             0.0000000000
     16225       130  PMPE      H12X            0.9383706690      -21.9678231134       -4.2500798333  MEMB      130             0.0000000000
     16226       130  PMPE      H12Y            1.7506730381      -22.9046537018       -5.5872112181  MEMB      130             0.0000000000
     16227       130  PMPE      C313           -0.0332998547      -23.8174134024       -4.7718600543  MEMB      130             0.0000000000
     16228       130  PMPE      H13X            0.3587193077      -24.3715563997       -3.8953422676  MEMB      130             0.0000000000
     16229       130  PMPE      H13Y            0.0310294651      -24.5179103126       -5.6246165962  MEMB      130             0.0000000000
     16230       130  PMPE      C314           -1.4796848570      -23.4957930829       -4.4416264457  MEMB      130             0.0000000000
     16231       130  PMPE      H14X           -1.8572539896      -24.5190323700       -4.5827480059  MEMB      130             0.0000000000
     16232       130  PMPE      H14Y           -2.1439247962      -23.0760408984       -5.1976876889  MEMB      130             0.0000000000
     16233       130  PMPE      C315           -1.6194137682      -22.7579611233       -3.0560423058  MEMB      130             0.0000000000
     16234       130  PMPE      H15X           -2.5971807305      -23.0259717665       -2.5804825880  MEMB      130             0.0000000000
     16235       130  PMPE      H15Y           -1.7233632107      -21.7219039049       -3.2843061321  MEMB      130             0.0000000000
     16236       130  PMPE      C316           -0.4957105986      -22.8881899898       -1.9760515377  MEMB      130             0.0000000000
     16237       130  PMPE      H16X           -0.7152644122      -22.3518752135       -1.0293783754  MEMB      130             0.0000000000
     16238       130  PMPE      H16Y            0.5624367438      -22.9880025636       -2.2427674797  MEMB      130             0.0000000000
     16239       130  PMPE      H16Z           -0.4823389167      -23.8893830122       -1.5846427062  MEMB      130             0.0000000000
     16240       131  QMPE      N             -16.4659616455       19.8859121832      -21.4541687780  MEMB      131             0.0000000000
     16241       131  QMPE      HN1           -17.0364386371       19.9546129594      -22.3394694933  MEMB      131             0.0000000000
     16242       131  QMPE      HN2           -17.0325427936       20.2704154606      -20.6733392164  MEMB      131             0.0000000000
     16243       131  QMPE      HN3           -15.5968577662       20.4400311318      -21.5573307240  MEMB      131             0.0000000000
     16244       131  QMPE      C12           -16.2762634554       18.4499006676      -21.0571593312  MEMB      131             0.0000000000
     16245       131  QMPE      H12A          -15.2512788775       18.1341604333      -21.3333863914  MEMB      131             0.0000000000
     16246       131  QMPE      H12B          -17.0272947856       17.8638098295      -21.6334952904  MEMB      131             0.0000000000
     16247       131  QMPE      C11           -16.5538339305       18.2593282261      -19.5545261306  MEMB      131             0.0000000000
     16248       131  QMPE      H11A          -17.3859336505       18.9213978299      -19.2176467627  MEMB      131             0.0000000000
     16249       131  QMPE      H11B          -15.6392527280       18.5097327847      -18.9644400269  MEMB      131             0.0000000000
     16250       131  QMPE      P             -16.7766070404       16.1756430337      -17.9542124863  MEMB      131             0.0000000000
     16251       131  QMPE      O13           -15.3352613518       16.2739045312      -17.6527257001  MEMB      131             0.0000000000
     16252       131  QMPE      O14           -17.4145637528       14.8519217291      -18.0670168031  MEMB      131             0.0000000000
     16253       131  QMPE      O11           -17.6025330412       17.0902857620      -16.9608729613  MEMB      131             0.0000000000
     16254       131  QMPE      O12           -16.9510451889       16.9156867854      -19.3505095797  MEMB      131             0.0000000000
     16255       131  QMPE      C1            -16.8896874992       17.7960050860      -15.9349431034  MEMB      131             0.0000000000
     16256       131  QMPE      HA            -17.4628358747       18.7135930637      -15.6786410872  MEMB      131             0.0000000000
     16257       131  QMPE      HB            -15.8762195105       18.1226910256      -16.2504152119  MEMB      131             0.0000000000
     16258       131  QMPE      C2            -16.6696542465       17.0165991877      -14.6250638021  MEMB      131             0.0000000000
     16259       131  QMPE      HS            -16.2273280661       16.0117033103      -14.8048622157  MEMB      131             0.0000000000
     16260       131  QMPE      O21           -17.9321377670       16.9157450473      -14.0239132050  MEMB      131             0.0000000000
     16261       131  QMPE      C21           -17.8920300446       16.0844567972      -13.0567342444  MEMB      131             0.0000000000
     16262       131  QMPE      O22           -17.1157813775       15.1613951803      -12.8584139263  MEMB      131             0.0000000000
     16263       131  QMPE      C22           -19.0642294865       16.4474940296      -12.2911773279  MEMB      131             0.0000000000
     16264       131  QMPE      H2R           -19.8259744204       15.9216293867      -12.9160442839  MEMB      131             0.0000000000
     16265       131  QMPE      H2S           -19.3713252239       17.4906895193      -12.1931242483  MEMB      131             0.0000000000
     16266       131  QMPE      C3            -15.7153352834       17.8391792704      -13.7045557140  MEMB      131             0.0000000000
     16267       131  QMPE      HX            -16.0465048904       18.9045478056      -13.7690241444  MEMB      131             0.0000000000
     16268       131  QMPE      HY            -14.7135743594       17.7201938013      -14.1656761867  MEMB      131             0.0000000000
     16269       131  QMPE      O31           -15.6737110546       17.4011513838      -12.3280049541  MEMB      131             0.0000000000
     16270       131  QMPE      C31           -14.9460837440       18.1981931009      -11.5486351457  MEMB      131             0.0000000000
     16271       131  QMPE      O32           -14.4701071850       19.2637184910      -11.8930196711  MEMB      131             0.0000000000
     16272       131  QMPE      C32           -14.7945519816       17.5705547634      -10.1642031024  MEMB      131             0.0000000000
     16273       131  QMPE      H2X           -15.6441226170       16.8975580497      -10.0008307029  MEMB      131             0.0000000000
     16274       131  QMPE      H2Y           -13.8841663985       16.9465406210      -10.1718409530  MEMB      131             0.0000000000
     16275       131  QMPE      C23           -19.1004155697       15.8308799715      -10.9605832148  MEMB      131             0.0000000000
     16276       131  QMPE      H3R           -18.7790091934       14.7727390738      -10.9208957053  MEMB      131             0.0000000000
     16277       131  QMPE      H3S           -20.1871425961       16.0411157195      -10.7943856704  MEMB      131             0.0000000000
     16278       131  QMPE      C24           -18.3420820690       16.1779387091       -9.7688149656  MEMB      131             0.0000000000
     16279       131  QMPE      H4R           -17.3292020640       16.2010105922      -10.1708761990  MEMB      131             0.0000000000
     16280       131  QMPE      H4S           -18.3276860026       15.3485166131       -9.0274869211  MEMB      131             0.0000000000
     16281       131  QMPE      C25           -18.9840899743       17.3888483714       -9.1765598942  MEMB      131             0.0000000000
     16282       131  QMPE      H5R           -18.8068847679       18.1315158608       -9.9862553672  MEMB      131             0.0000000000
     16283       131  QMPE      H5S           -18.3440920906       17.5230640304       -8.2922899994  MEMB      131             0.0000000000
     16284       131  QMPE      C26           -20.4430261789       17.4151612294       -8.6359093600  MEMB      131             0.0000000000
     16285       131  QMPE      H6R           -20.7934126583       16.5599128867       -8.0378152259  MEMB      131             0.0000000000
     16286       131  QMPE      H6S           -21.2581757817       17.3574590447       -9.3139417045  MEMB      131             0.0000000000
     16287       131  QMPE      C27           -20.6762521330       18.6971384733       -7.8715688389  MEMB      131             0.0000000000
     16288       131  QMPE      H7R           -21.7307866647       18.7293260124       -7.5284520872  MEMB      131             0.0000000000
     16289       131  QMPE      H7S           -20.4550354813       19.6020360413       -8.4863821640  MEMB      131             0.0000000000
     16290       131  QMPE      C28           -19.8321098026       18.6638631346       -6.6363154477  MEMB      131             0.0000000000
     16291       131  QMPE      H8R           -18.8024894030       18.9838893513       -6.8935043679  MEMB      131             0.0000000000
     16292       131  QMPE      H8S           -19.8069462290       17.6109699215       -6.2713082091  MEMB      131             0.0000000000
     16293       131  QMPE      C29           -20.4295291828       19.6260709924       -5.6614831423  MEMB      131             0.0000000000
     16294       131  QMPE      H9R           -20.7091850009       20.6270651396       -6.0378135469  MEMB      131             0.0000000000
     16295       131  QMPE      C217          -19.7164399625       19.5525399774       -4.3331865544  MEMB      131             0.0000000000
     16296       131  QMPE      H17R          -19.1107094027       18.6673603173       -4.2313376404  MEMB      131             0.0000000000
     16297       131  QMPE      H17S          -19.5775403042       20.5058739891       -3.8527318121  MEMB      131             0.0000000000
     16298       131  QMPE      C210          -21.1555834048       19.1325842374       -4.4350803529  MEMB      131             0.0000000000
     16299       131  QMPE      H10R          -21.9191715566       19.8981313057       -4.2108039802  MEMB      131             0.0000000000
     16300       131  QMPE      C211          -21.4260875075       17.5940815284       -4.3622563647  MEMB      131             0.0000000000
     16301       131  QMPE      H11R          -21.9555927829       17.3217605179       -5.3123834764  MEMB      131             0.0000000000
     16302       131  QMPE      H11S          -20.5121922988       16.9902741946       -4.2644329516  MEMB      131             0.0000000000
     16303       131  QMPE      C212          -22.2390606264       17.0504717610       -3.1628144918  MEMB      131             0.0000000000
     16304       131  QMPE      H12R          -22.7872441862       16.1195846613       -3.3125471239  MEMB      131             0.0000000000
     16305       131  QMPE      H12S          -23.0824851218       17.6255544709       -2.9046571850  MEMB      131             0.0000000000
     16306       131  QMPE      C213          -21.9185248117       17.5686235269       -1.8098371612  MEMB      131             0.0000000000
     16307       131  QMPE      H13R          -21.8887320903       18.6977634762       -1.9703798899  MEMB      131             0.0000000000
     16308       131  QMPE      H13S          -20.9031759947       17.4868593824       -1.7095124911  MEMB      131             0.0000000000
     16309       131  QMPE      C214          -22.7615044311       16.9152195553       -0.5967209438  MEMB      131             0.0000000000
     16310       131  QMPE      H14R          -22.8867193861       15.8442187688       -0.7629833907  MEMB      131             0.0000000000
     16311       131  QMPE      H14S          -23.8451329326       17.2081818757       -0.7547022546  MEMB      131             0.0000000000
     16312       131  QMPE      C215          -22.2551704443       17.3486681907        0.9277547123  MEMB      131             0.0000000000
     16313       131  QMPE      H15R          -21.4000682443       17.8706119821        0.6396918368  MEMB      131             0.0000000000
     16314       131  QMPE      H15S          -22.3562258916       16.6205338031        1.7050274302  MEMB      131             0.0000000000
     16315       131  QMPE      C216          -22.0691051205       18.5910912086        1.9774220583  MEMB      131             0.0000000000
     16316       131  QMPE      H16R          -21.8548146007       19.4224213194        1.4086523022  MEMB      131             0.0000000000
     16317       131  QMPE      H16S          -22.7937558184       18.5455927112        2.7364352294  MEMB      131             0.0000000000
     16318       131  QMPE      H16T          -22.5718069436       19.5971120904        1.8643684034  MEMB      131             0.0000000000
     16319       131  QMPE      C33           -14.8052126629       18.6340560795       -9.0412750907  MEMB      131             0.0000000000
     16320       131  QMPE      H3X           -15.6237233127       19.3512538849       -9.3020838572  MEMB      131             0.0000000000
     16321       131  QMPE      H3Y           -13.8599290338       19.2164036462       -9.0091851929  MEMB      131             0.0000000000
     16322       131  QMPE      C34           -15.1653103052       18.0832370674       -7.6461163802  MEMB      131             0.0000000000
     16323       131  QMPE      H4X           -15.9859746673       17.3400581733       -7.7455839348  MEMB      131             0.0000000000
     16324       131  QMPE      H4Y           -15.6133059230       18.9285198305       -7.0770178021  MEMB      131             0.0000000000
     16325       131  QMPE      C35           -13.9931639654       17.4905661215       -6.8314767455  MEMB      131             0.0000000000
     16326       131  QMPE      H5X           -13.3120507346       18.2959689035       -6.4783671096  MEMB      131             0.0000000000
     16327       131  QMPE      H5Y           -13.3802530799       16.8104281538       -7.4640045705  MEMB      131             0.0000000000
     16328       131  QMPE      C36           -14.4535272152       16.6893077208       -5.6039910492  MEMB      131             0.0000000000
     16329       131  QMPE      H6X           -13.5893188613       16.1189879003       -5.1965980304  MEMB      131             0.0000000000
     16330       131  QMPE      H6Y           -15.2236581838       15.9448926327       -5.9186901793  MEMB      131             0.0000000000
     16331       131  QMPE      C37           -15.0219454974       17.5558783326       -4.4811336863  MEMB      131             0.0000000000
     16332       131  QMPE      H7X           -14.3267286116       18.2961311009       -4.0470846620  MEMB      131             0.0000000000
     16333       131  QMPE      H7Y           -15.9062385074       18.1212415345       -4.8639227878  MEMB      131             0.0000000000
     16334       131  QMPE      C38           -15.4957205058       16.7099508613       -3.3368813174  MEMB      131             0.0000000000
     16335       131  QMPE      H8X           -14.9909197059       15.7116876950       -3.2575470847  MEMB      131             0.0000000000
     16336       131  QMPE      H8Y           -15.3113411419       17.2511015695       -2.3743078396  MEMB      131             0.0000000000
     16337       131  QMPE      C39           -16.9788627386       16.5469961177       -3.6306330155  MEMB      131             0.0000000000
     16338       131  QMPE      H9X           -17.0653682276       15.5138142700       -4.0627307834  MEMB      131             0.0000000000
     16339       131  QMPE      H9Y           -17.5164934191       17.3392397044       -4.1457587326  MEMB      131             0.0000000000
     16340       131  QMPE      C310          -17.7387062281       16.7276548207       -2.4127267389  MEMB      131             0.0000000000
     16341       131  QMPE      H10X          -17.2049997444       15.7922554233       -2.0243640342  MEMB      131             0.0000000000
     16342       131  QMPE      H10Y          -18.7768400585       16.5962310076       -2.1892152309  MEMB      131             0.0000000000
     16343       131  QMPE      C311          -18.3675533349       18.1053314792       -1.7836362997  MEMB      131             0.0000000000
     16344       131  QMPE      H11X          -18.0646882306       19.1073941974       -1.6875389301  MEMB      131             0.0000000000
     16345       131  QMPE      H11Y          -17.2829013096       18.1241354179       -1.6329650906  MEMB      131             0.0000000000
     16346       131  QMPE      C312          -19.2683249829       18.2125464685       -0.3982443120  MEMB      131             0.0000000000
     16347       131  QMPE      H12X          -19.6321722625       17.1108811834       -0.4209517959  MEMB      131             0.0000000000
     16348       131  QMPE      H12Y          -19.9785631703       17.4467356357       -0.0410871676  MEMB      131             0.0000000000
     16349       131  QMPE      C313          -18.4272499801       18.9169145279        0.9928227041  MEMB      131             0.0000000000
     16350       131  QMPE      H13X          -18.6686141481       19.6845241384        0.3606455273  MEMB      131             0.0000000000
     16351       131  QMPE      H13Y          -19.2450658998       18.6105029430        1.7909495122  MEMB      131             0.0000000000
     16352       131  QMPE      C314          -16.7250377002       19.2149301296        1.6117830104  MEMB      131             0.0000000000
     16353       131  QMPE      H14X          -16.8248679822       19.9935146095        2.4089172940  MEMB      131             0.0000000000
     16354       131  QMPE      H14Y          -16.2857444034       19.4149683316        0.6757134300  MEMB      131             0.0000000000
     16355       131  QMPE      C315          -15.3836256560       18.3967961464        2.4454543687  MEMB      131             0.0000000000
     16356       131  QMPE      H15X          -15.1969398179       17.5312561705        1.8318335205  MEMB      131             0.0000000000
     16357       131  QMPE      H15Y          -14.3373380630       18.5938962176        2.6086383814  MEMB      131             0.0000000000
     16358       131  QMPE      H15Z          -15.5809551879       17.8018242673        3.3993661607  MEMB      131             0.0000000000
     16359       132  PMPE      N             -22.6548694976      -13.9561500616      -20.8942905562  MEMB      132             0.0000000000
     16360       132  PMPE      HN1           -22.5024672611      -14.5781295375      -20.0738268356  MEMB      132             0.0000000000
     16361       132  PMPE      HN2           -23.4971869442      -14.2207766009      -21.4469687965  MEMB      132             0.0000000000
     16362       132  PMPE      HN3           -21.8026314019      -13.9718573657      -21.4925302335  MEMB      132             0.0000000000
     16363       132  PMPE      C12           -22.8234034911      -12.5611349360      -20.3616995025  MEMB      132             0.0000000000
     16364       132  PMPE      H12A          -23.7334005764      -12.5471751692      -19.7228630094  MEMB      132             0.0000000000
     16365       132  PMPE      H12B          -22.9352797099      -11.8911990264      -21.2426015268  MEMB      132             0.0000000000
     16366       132  PMPE      C11           -21.6098933869      -12.1349856412      -19.5270702418  MEMB      132             0.0000000000
     16367       132  PMPE      H11A          -21.7965119258      -11.1228417592      -19.0967583101  MEMB      132             0.0000000000
     16368       132  PMPE      H11B          -20.7529218205      -12.0467796265      -20.2455514769  MEMB      132             0.0000000000
     16369       132  PMPE      P             -19.8941005423      -13.6456007424      -18.2790034959  MEMB      132             0.0000000000
     16370       132  PMPE      O13           -18.9858002995      -12.6150187802      -17.7531061806  MEMB      132             0.0000000000
     16371       132  PMPE      O14           -19.6152474684      -14.2365004914      -19.5963443656  MEMB      132             0.0000000000
     16372       132  PMPE      O11           -20.0396039154      -14.8260197993      -17.2731134914  MEMB      132             0.0000000000
     16373       132  PMPE      O12           -21.3738324653      -13.0566858188      -18.4513329172  MEMB      132             0.0000000000
     16374       132  PMPE      C1            -21.2344040531      -14.9596139134      -16.5314013293  MEMB      132             0.0000000000
     16375       132  PMPE      HA            -21.1774564727      -15.9633413978      -16.0622869732  MEMB      132             0.0000000000
     16376       132  PMPE      HB            -22.1138600905      -15.0044108410      -17.2077819844  MEMB      132             0.0000000000
     16377       132  PMPE      C2            -21.4014992369      -13.8409145927      -15.4382547121  MEMB      132             0.0000000000
     16378       132  PMPE      HS            -21.7873429872      -12.9175910733      -15.9157770174  MEMB      132             0.0000000000
     16379       132  PMPE      O21           -20.1425590454      -13.6218637090      -14.7833545658  MEMB      132             0.0000000000
     16380       132  PMPE      C21           -19.9194349681      -12.4368856475      -14.2648767072  MEMB      132             0.0000000000
     16381       132  PMPE      O22           -20.6596464379      -11.4703439050      -14.2889913767  MEMB      132             0.0000000000
     16382       132  PMPE      C22           -18.6050206020      -12.4939730130      -13.4844360913  MEMB      132             0.0000000000
     16383       132  PMPE      H2R           -17.9803293561      -11.6663620779      -13.8706871936  MEMB      132             0.0000000000
     16384       132  PMPE      H2S           -18.0933193857      -13.4558392047      -13.6971880672  MEMB      132             0.0000000000
     16385       132  PMPE      C3            -22.4276778373      -14.3614231316      -14.4146088873  MEMB      132             0.0000000000
     16386       132  PMPE      HX            -21.8680713849      -15.2401943039      -14.1069224574  MEMB      132             0.0000000000
     16387       132  PMPE      HY            -23.3427966487      -14.6813636688      -14.9546335005  MEMB      132             0.0000000000
     16388       132  PMPE      O31           -22.6943429903      -13.5404342549      -13.2535009592  MEMB      132             0.0000000000
     16389       132  PMPE      C31           -23.5496012264      -14.1202262736      -12.4254518035  MEMB      132             0.0000000000
     16390       132  PMPE      O32           -24.0789321154      -15.2002214124      -12.5916576317  MEMB      132             0.0000000000
     16391       132  PMPE      C32           -23.6846944583      -13.3134675190      -11.1639021638  MEMB      132             0.0000000000
     16392       132  PMPE      H2X           -24.2563264940      -12.3798495434      -11.3405662339  MEMB      132             0.0000000000
     16393       132  PMPE      H2Y           -22.6860368812      -13.0632329469      -10.7577917279  MEMB      132             0.0000000000
     16394       132  PMPE      C23           -18.8420636455      -12.3349332015      -11.9664937270  MEMB      132             0.0000000000
     16395       132  PMPE      H3R           -19.7005817580      -11.6473460171      -11.7783556256  MEMB      132             0.0000000000
     16396       132  PMPE      H3S           -17.9408756522      -11.8890863793      -11.4890764899  MEMB      132             0.0000000000
     16397       132  PMPE      C24           -19.1323944783      -13.6921828517      -11.3271697961  MEMB      132             0.0000000000
     16398       132  PMPE      H4R           -18.2754186692      -14.3868308773      -11.4735040231  MEMB      132             0.0000000000
     16399       132  PMPE      H4S           -19.9846698901      -14.1264791923      -11.9049362989  MEMB      132             0.0000000000
     16400       132  PMPE      C25           -19.4823989390      -13.5520964852       -9.8327588139  MEMB      132             0.0000000000
     16401       132  PMPE      H5R           -20.3416727483      -12.8443371806       -9.7550147444  MEMB      132             0.0000000000
     16402       132  PMPE      H5S           -18.6318058386      -13.2443927809       -9.2048048346  MEMB      132             0.0000000000
     16403       132  PMPE      C26           -20.0558715337      -14.8131273158       -9.2673840705  MEMB      132             0.0000000000
     16404       132  PMPE      H6R           -19.3879263642      -15.6910173633       -9.2580265733  MEMB      132             0.0000000000
     16405       132  PMPE      H6S           -20.7981484213      -14.8897866431      -10.0891668212  MEMB      132             0.0000000000
     16406       132  PMPE      C27           -20.8696155036      -14.7694531743       -7.9797938948  MEMB      132             0.0000000000
     16407       132  PMPE      H7R           -21.5371695941      -15.6537892363       -8.0374214155  MEMB      132             0.0000000000
     16408       132  PMPE      H7S           -21.4697949835      -13.8647310683       -7.8527337784  MEMB      132             0.0000000000
     16409       132  PMPE      C28           -20.0927016632      -15.0270073659       -6.7287388856  MEMB      132             0.0000000000
     16410       132  PMPE      H8R           -19.7138613600      -16.0425598290       -6.9970789155  MEMB      132             0.0000000000
     16411       132  PMPE      H8S           -20.7661769984      -15.1891742565       -5.8618892768  MEMB      132             0.0000000000
     16412       132  PMPE      C29           -19.1053449950      -13.8805103228       -6.3714892346  MEMB      132             0.0000000000
     16413       132  PMPE      H9R           -19.5214273509      -12.9256085579       -6.0614130361  MEMB      132             0.0000000000
     16414       132  PMPE      C217          -17.6541579256      -13.9217849861       -6.8151461882  MEMB      132             0.0000000000
     16415       132  PMPE      H17R          -17.2232287254      -12.9689481875       -7.0581373106  MEMB      132             0.0000000000
     16416       132  PMPE      H17S          -17.4392198155      -14.7362771782       -7.4456648258  MEMB      132             0.0000000000
     16417       132  PMPE      C210          -18.0898139235      -14.2098724174       -5.3449750668  MEMB      132             0.0000000000
     16418       132  PMPE      H10R          -17.4783591204      -13.5246667437       -4.7272837062  MEMB      132             0.0000000000
     16419       132  PMPE      C211          -18.0178924511      -15.6679437029       -5.0889460478  MEMB      132             0.0000000000
     16420       132  PMPE      H11R          -17.0864019659      -15.7416459639       -5.5826872347  MEMB      132             0.0000000000
     16421       132  PMPE      H11S          -18.5584780958      -16.2466947406       -5.7514303632  MEMB      132             0.0000000000
     16422       132  PMPE      C212          -18.5750227475      -16.6099883690       -3.9812219490  MEMB      132             0.0000000000
     16423       132  PMPE      H12R          -19.4550223610      -17.1671614627       -4.3131143825  MEMB      132             0.0000000000
     16424       132  PMPE      H12S          -19.0719067662      -15.7739453796       -3.5094562683  MEMB      132             0.0000000000
     16425       132  PMPE      C213          -17.7472723452      -17.6975155445       -3.1824452377  MEMB      132             0.0000000000
     16426       132  PMPE      H13R          -16.7906689170      -17.4182611160       -2.7790723948  MEMB      132             0.0000000000
     16427       132  PMPE      H13S          -17.1751737943      -18.3977247959       -3.8322548634  MEMB      132             0.0000000000
     16428       132  PMPE      C214          -18.2548095390      -18.1786738878       -1.7988566619  MEMB      132             0.0000000000
     16429       132  PMPE      H14R          -17.5849545766      -18.8965234304       -1.3964498099  MEMB      132             0.0000000000
     16430       132  PMPE      H14S          -19.1603031981      -18.6812573761       -1.9227086253  MEMB      132             0.0000000000
     16431       132  PMPE      C215          -19.1042961557      -17.5232155072       -0.7314976724  MEMB      132             0.0000000000
     16432       132  PMPE      H15R          -19.5746038150      -18.3598057298       -0.1657467629  MEMB      132             0.0000000000
     16433       132  PMPE      H15S          -19.7437047577      -16.7384913496       -1.0555686191  MEMB      132             0.0000000000
     16434       132  PMPE      C216          -18.4931473330      -16.8204731147        0.3044719255  MEMB      132             0.0000000000
     16435       132  PMPE      H16R          -17.9148838737      -17.5973138765        0.8178571561  MEMB      132             0.0000000000
     16436       132  PMPE      H16S          -17.8612021853      -16.1145449162        0.1275391200  MEMB      132             0.0000000000
     16437       132  PMPE      H16T          -19.0043966532      -16.1208010731        1.0027377783  MEMB      132             0.0000000000
     16438       132  PMPE      C33           -24.4454469217      -14.1508987300      -10.1548485295  MEMB      132             0.0000000000
     16439       132  PMPE      H3X           -24.0940702437      -15.1872644464      -10.0322771294  MEMB      132             0.0000000000
     16440       132  PMPE      H3Y           -25.4874761967      -14.2713373299      -10.5528775198  MEMB      132             0.0000000000
     16441       132  PMPE      C34           -24.3737397054      -13.4325590238       -8.7862276665  MEMB      132             0.0000000000
     16442       132  PMPE      H4X           -25.0221460139      -12.5200531023       -8.9449351369  MEMB      132             0.0000000000
     16443       132  PMPE      H4Y           -23.3908847246      -13.2163391493       -8.3839041493  MEMB      132             0.0000000000
     16444       132  PMPE      C35           -24.8444148482      -14.2316428595       -7.5724463538  MEMB      132             0.0000000000
     16445       132  PMPE      H5X           -25.5152466485      -14.2831484006       -8.3758893267  MEMB      132             0.0000000000
     16446       132  PMPE      H5Y           -25.3275500615      -13.7160426936       -6.7259813404  MEMB      132             0.0000000000
     16447       132  PMPE      C36           -24.5226922120      -15.6883083334       -7.2936554892  MEMB      132             0.0000000000
     16448       132  PMPE      H6X           -23.4562281255      -15.5556835253       -7.0951534703  MEMB      132             0.0000000000
     16449       132  PMPE      H6Y           -24.6737565824      -16.3307731467       -8.1972868791  MEMB      132             0.0000000000
     16450       132  PMPE      C37           -25.2211763639      -16.3794804787       -6.0903844928  MEMB      132             0.0000000000
     16451       132  PMPE      H7X           -24.8413711698      -17.4217513544       -6.0902725205  MEMB      132             0.0000000000
     16452       132  PMPE      H7Y           -26.3311675707      -16.4846392206       -6.0858859838  MEMB      132             0.0000000000
     16453       132  PMPE      C38           -24.9284779179      -15.7956903601       -4.7259259960  MEMB      132             0.0000000000
     16454       132  PMPE      H8X           -25.2584090598      -16.6265761738       -4.0919602738  MEMB      132             0.0000000000
     16455       132  PMPE      H8Y           -25.5624168217      -14.9186694045       -4.4777368651  MEMB      132             0.0000000000
     16456       132  PMPE      C39           -23.4674026602      -15.4516090460       -4.5162936762  MEMB      132             0.0000000000
     16457       132  PMPE      H9X           -23.2478675033      -14.5164194002       -5.0820909433  MEMB      132             0.0000000000
     16458       132  PMPE      H9Y           -22.8106926251      -16.2604971215       -4.9059973122  MEMB      132             0.0000000000
     16459       132  PMPE      C310          -23.1341311631      -15.1849316261       -3.0626976899  MEMB      132             0.0000000000
     16460       132  PMPE      H10X          -23.0967739363      -16.1390716144       -2.5001685044  MEMB      132             0.0000000000
     16461       132  PMPE      H10Y          -23.9440572288      -14.5615838215       -2.6212462925  MEMB      132             0.0000000000
     16462       132  PMPE      C311          -21.7568429157      -14.5300155619       -2.9729434228  MEMB      132             0.0000000000
     16463       132  PMPE      H11X          -21.7904393714      -13.5088290950       -3.3996024737  MEMB      132             0.0000000000
     16464       132  PMPE      H11Y          -21.0678639034      -15.1404646442       -3.6016310440  MEMB      132             0.0000000000
     16465       132  PMPE      C312          -21.1922624832      -14.4880078458       -1.5577330915  MEMB      132             0.0000000000
     16466       132  PMPE      H12X          -20.2475252345      -13.9034493222       -1.5109331095  MEMB      132             0.0000000000
     16467       132  PMPE      H12Y          -21.0007264431      -15.5322424993       -1.3087700338  MEMB      132             0.0000000000
     16468       132  PMPE      C313          -22.1510949323      -14.0033656678       -0.4864517006  MEMB      132             0.0000000000
     16469       132  PMPE      H13X          -21.6748225086      -14.1262710373        0.5128639534  MEMB      132             0.0000000000
     16470       132  PMPE      H13Y          -23.0510858962      -14.6505519819       -0.4778058672  MEMB      132             0.0000000000
     16471       132  PMPE      C314          -22.5471647888      -12.5458887695       -0.6935627790  MEMB      132             0.0000000000
     16472       132  PMPE      H14X          -23.2451965371      -12.3464160710        0.1330754557  MEMB      132             0.0000000000
     16473       132  PMPE      H14Y          -23.0965504930      -12.3776619959       -1.6357798047  MEMB      132             0.0000000000
     16474       132  PMPE      C315          -21.3766873915      -11.5539188043       -0.6078593821  MEMB      132             0.0000000000
     16475       132  PMPE      H15X          -21.7833807211      -10.5125583540       -0.7276054479  MEMB      132             0.0000000000
     16476       132  PMPE      H15Y          -20.5605392166      -11.7450106770       -1.3038029904  MEMB      132             0.0000000000
     16477       132  PMPE      C316          -20.6582681597      -11.6409915259        0.6895903532  MEMB      132             0.0000000000
     16478       132  PMPE      H16X          -20.3574260476      -10.6423830574        1.0574764547  MEMB      132             0.0000000000
     16479       132  PMPE      H16Y          -20.2159188065      -12.5091536351        1.1997905362  MEMB      132             0.0000000000
     16480       132  PMPE      H16Z          -21.5842240468      -11.9443642010        1.1570791635  MEMB      132             0.0000000000
     16481       133  QMPE      N              25.8168921745        4.5327972682      -21.5895327276  MEMB      133             0.0000000000
     16482       133  QMPE      HN1            25.8462385543        4.8930563216      -22.5600554650  MEMB      133             0.0000000000
     16483       133  QMPE      HN2            25.4710509677        5.2658857672      -20.9347626926  MEMB      133             0.0000000000
     16484       133  QMPE      HN3            26.7732880454        4.2593233992      -21.2775464886  MEMB      133             0.0000000000
     16485       133  QMPE      C12            24.9645979142        3.2938929730      -21.5348382614  MEMB      133             0.0000000000
     16486       133  QMPE      H12A           25.5875550194        2.4538934636      -21.9006398015  MEMB      133             0.0000000000
     16487       133  QMPE      H12B           24.1004479742        3.4314451555      -22.2126447677  MEMB      133             0.0000000000
     16488       133  QMPE      C11            24.4177139268        3.0150900022      -20.1294087971  MEMB      133             0.0000000000
     16489       133  QMPE      H11A           23.7821723106        2.0979316959      -20.1907852705  MEMB      133             0.0000000000
     16490       133  QMPE      H11B           23.7248941120        3.8586425857      -19.8680411311  MEMB      133             0.0000000000
     16491       133  QMPE      P              25.2677864425        3.5291606161      -17.7416759083  MEMB      133             0.0000000000
     16492       133  QMPE      O13            23.8695776379        3.3516298344      -17.3087891242  MEMB      133             0.0000000000
     16493       133  QMPE      O14            25.7573582734        4.9133113456      -17.9147504031  MEMB      133             0.0000000000
     16494       133  QMPE      O11            26.2153035661        2.7087468856      -16.8022479040  MEMB      133             0.0000000000
     16495       133  QMPE      O12            25.4801340628        2.8239649958      -19.1772411340  MEMB      133             0.0000000000
     16496       133  QMPE      C1             27.3460541256        2.0148958533      -17.2863424257  MEMB      133             0.0000000000
     16497       133  QMPE      HA             27.9074743052        2.6345543506      -18.0251075132  MEMB      133             0.0000000000
     16498       133  QMPE      HB             27.0097428147        1.0610610608      -17.7464413023  MEMB      133             0.0000000000
     16499       133  QMPE      C2             28.3356514784        1.7533402371      -16.1268723861  MEMB      133             0.0000000000
     16500       133  QMPE      HS             29.1933712045        1.1776879432      -16.5380567377  MEMB      133             0.0000000000
     16501       133  QMPE      O21            27.7516175760        1.0424403148      -15.0410090346  MEMB      133             0.0000000000
     16502       133  QMPE      C21            27.4840828401       -0.1832518494      -15.3049034556  MEMB      133             0.0000000000
     16503       133  QMPE      O22            27.8680196667       -0.8230244088      -16.2637891560  MEMB      133             0.0000000000
     16504       133  QMPE      C22            26.5869010220       -0.7506183666      -14.3015933507  MEMB      133             0.0000000000
     16505       133  QMPE      H2R            27.2649246941       -1.1459050427      -13.5092774133  MEMB      133             0.0000000000
     16506       133  QMPE      H2S            26.1352601058       -1.6534771352      -14.7738458005  MEMB      133             0.0000000000
     16507       133  QMPE      C3             28.8701356660        3.0570111725      -15.5225952557  MEMB      133             0.0000000000
     16508       133  QMPE      HX             29.4047568752        3.6356562061      -16.2944349248  MEMB      133             0.0000000000
     16509       133  QMPE      HY             29.5806903073        2.7418556821      -14.7242279995  MEMB      133             0.0000000000
     16510       133  QMPE      O31            27.8247859169        3.9014328075      -15.0384395681  MEMB      133             0.0000000000
     16511       133  QMPE      C31            27.6201690661        3.8624585947      -13.7558911216  MEMB      133             0.0000000000
     16512       133  QMPE      O32            28.2111284859        3.1919154138      -12.9281684306  MEMB      133             0.0000000000
     16513       133  QMPE      C32            26.6028953064        4.8707199587      -13.4259241701  MEMB      133             0.0000000000
     16514       133  QMPE      H2X            26.8538481984        5.8609968238      -13.8788181203  MEMB      133             0.0000000000
     16515       133  QMPE      H2Y            25.6432545948        4.5085656862      -13.8714844340  MEMB      133             0.0000000000
     16516       133  QMPE      C23            25.5602499326        0.3412306075      -13.8063208319  MEMB      133             0.0000000000
     16517       133  QMPE      H3R            24.8236213486        0.6080756499      -14.5829884417  MEMB      133             0.0000000000
     16518       133  QMPE      H3S            26.1720155372        1.1755030701      -13.4145715650  MEMB      133             0.0000000000
     16519       133  QMPE      C24            24.7285688198        0.0072967611      -12.5959544112  MEMB      133             0.0000000000
     16520       133  QMPE      H4R            25.4999111599       -0.3704019618      -11.9336444619  MEMB      133             0.0000000000
     16521       133  QMPE      H4S            23.9842830522       -0.6617407373      -12.8806406199  MEMB      133             0.0000000000
     16522       133  QMPE      C25            23.6437252976        0.6913312264      -11.8352027448  MEMB      133             0.0000000000
     16523       133  QMPE      H5R            23.1073716765       -0.0046160046      -11.1203056819  MEMB      133             0.0000000000
     16524       133  QMPE      H5S            22.8483295666        0.9549868326      -12.5593232545  MEMB      133             0.0000000000
     16525       133  QMPE      C26            24.3842072721        1.7905942062      -11.1749559495  MEMB      133             0.0000000000
     16526       133  QMPE      H6R            23.5512051274        2.3486478462      -10.7418821447  MEMB      133             0.0000000000
     16527       133  QMPE      H6S            24.9536823909        2.3066642364      -11.9773314142  MEMB      133             0.0000000000
     16528       133  QMPE      C27            25.2943481672        1.6297872372       -9.9734281491  MEMB      133             0.0000000000
     16529       133  QMPE      H7R            24.7294802073        1.3109218980       -9.0648830662  MEMB      133             0.0000000000
     16530       133  QMPE      H7S            25.7572081263        2.6177359697       -9.8117632661  MEMB      133             0.0000000000
     16531       133  QMPE      C28            26.5776783565        0.8790131129      -10.0429690938  MEMB      133             0.0000000000
     16532       133  QMPE      H8R            27.1049109626        0.6695785628      -11.0006967477  MEMB      133             0.0000000000
     16533       133  QMPE      H8S            26.1363033936       -0.0497728607       -9.8464776949  MEMB      133             0.0000000000
     16534       133  QMPE      C29            27.3155835373        1.3758918760       -8.7892195202  MEMB      133             0.0000000000
     16535       133  QMPE      H9R            28.0482299271        2.1593002424       -8.9695842935  MEMB      133             0.0000000000
     16536       133  QMPE      C217           28.2508403830        0.4402234356       -8.1362029921  MEMB      133             0.0000000000
     16537       133  QMPE      H17R           28.3270567692       -0.3569047581       -8.6732836186  MEMB      133             0.0000000000
     16538       133  QMPE      H17S           29.0428393253        0.4076821673       -7.4140675892  MEMB      133             0.0000000000
     16539       133  QMPE      C210           26.9240421674        0.8488963503       -7.3901698379  MEMB      133             0.0000000000
     16540       133  QMPE      H10R           27.3787753173        1.3167046097       -6.5247213123  MEMB      133             0.0000000000
     16541       133  QMPE      C211           25.6584039247        0.0557524744       -6.7203572112  MEMB      133             0.0000000000
     16542       133  QMPE      H11R           24.7680584977        0.6951796875       -6.6396472542  MEMB      133             0.0000000000
     16543       133  QMPE      H11S           25.1191984460       -0.6479921845       -7.1926302159  MEMB      133             0.0000000000
     16544       133  QMPE      C212           25.7584815888       -1.0100111017       -5.5300661466  MEMB      133             0.0000000000
     16545       133  QMPE      H12R           26.2992973131       -0.6855573432       -4.7133422252  MEMB      133             0.0000000000
     16546       133  QMPE      H12S           26.2190652837       -1.9729203860       -5.6851168865  MEMB      133             0.0000000000
     16547       133  QMPE      C213           25.1800642160       -2.4004233823       -5.7623626351  MEMB      133             0.0000000000
     16548       133  QMPE      H13R           24.7197588377       -2.4031634062       -6.5567337791  MEMB      133             0.0000000000
     16549       133  QMPE      H13S           24.5090236844       -1.5522475013       -5.6138657421  MEMB      133             0.0000000000
     16550       133  QMPE      C214           24.9670474156       -3.8880948220       -5.1364462246  MEMB      133             0.0000000000
     16551       133  QMPE      H14R           25.5711045285       -4.5530725300       -5.7986454086  MEMB      133             0.0000000000
     16552       133  QMPE      H14S           24.1105807041       -4.5793957963       -5.2394165959  MEMB      133             0.0000000000
     16553       133  QMPE      C215           25.2392549061       -3.6842999655       -3.6739683952  MEMB      133             0.0000000000
     16554       133  QMPE      H15R           25.9299252155       -2.8241242850       -3.6636851247  MEMB      133             0.0000000000
     16555       133  QMPE      H15S           26.0689846517       -4.1202416770       -3.3421541582  MEMB      133             0.0000000000
     16556       133  QMPE      C216           24.2367208092       -3.7989983934       -2.5098914479  MEMB      133             0.0000000000
     16557       133  QMPE      H16R           23.6153977498       -4.6176503181       -2.1857126357  MEMB      133             0.0000000000
     16558       133  QMPE      H16S           23.4116428595       -3.1814304803       -2.6824105374  MEMB      133             0.0000000000
     16559       133  QMPE      H16T           24.7380196467       -3.2931498117       -1.6434482864  MEMB      133             0.0000000000
     16560       133  QMPE      C33            26.4660558618        4.8739664737      -11.8987207312  MEMB      133             0.0000000000
     16561       133  QMPE      H3X            26.4186259204        3.8899683109      -11.4325244140  MEMB      133             0.0000000000
     16562       133  QMPE      H3Y            25.3638923528        4.9868707141      -11.8222113009  MEMB      133             0.0000000000
     16563       133  QMPE      C34            27.4520656421        5.8813133579      -11.1612436506  MEMB      133             0.0000000000
     16564       133  QMPE      H4X            27.3844686890        6.9474194671      -11.4724321323  MEMB      133             0.0000000000
     16565       133  QMPE      H4Y            28.4703123654        5.6217153867      -11.4830312451  MEMB      133             0.0000000000
     16566       133  QMPE      C35            27.3028404920        6.0824544510       -9.6263423197  MEMB      133             0.0000000000
     16567       133  QMPE      H5X            26.2746193002        6.3421246316       -9.3227396386  MEMB      133             0.0000000000
     16568       133  QMPE      H5Y            27.9031993473        6.9585787895       -9.2806232401  MEMB      133             0.0000000000
     16569       133  QMPE      C36            27.7216381008        4.8535370655       -8.8575874331  MEMB      133             0.0000000000
     16570       133  QMPE      H6X            28.7348571731        4.5732284260       -9.2037774261  MEMB      133             0.0000000000
     16571       133  QMPE      H6Y            27.0847140608        3.9992123837       -9.1429311409  MEMB      133             0.0000000000
     16572       133  QMPE      C37            27.7727769363        5.0531277371       -7.3343085436  MEMB      133             0.0000000000
     16573       133  QMPE      H7X            28.1843029987        4.0825816873       -6.9637839635  MEMB      133             0.0000000000
     16574       133  QMPE      H7Y            28.4174897331        5.9092293734       -7.0870748031  MEMB      133             0.0000000000
     16575       133  QMPE      C38            26.4592863127        5.1960301561       -6.6216437375  MEMB      133             0.0000000000
     16576       133  QMPE      H8X            26.5062126034        5.2494397385       -5.5072175554  MEMB      133             0.0000000000
     16577       133  QMPE      H8Y            25.8396151633        6.0620881240       -6.9368444298  MEMB      133             0.0000000000
     16578       133  QMPE      C39            25.7858369028        3.9375292122       -6.9756666551  MEMB      133             0.0000000000
     16579       133  QMPE      H9X            26.2050274430        2.9572000701       -6.7327345644  MEMB      133             0.0000000000
     16580       133  QMPE      H9Y            25.4580950679        3.9511814085       -8.0442991426  MEMB      133             0.0000000000
     16581       133  QMPE      C310           24.6838580358        3.8612678849       -6.0964622228  MEMB      133             0.0000000000
     16582       133  QMPE      H10X           24.3350343006        2.8545935569       -6.5121857270  MEMB      133             0.0000000000
     16583       133  QMPE      H10Y           24.1158451426        4.8037959069       -6.3249700836  MEMB      133             0.0000000000
     16584       133  QMPE      C311           24.6740739982        3.6841827641       -4.6321056589  MEMB      133             0.0000000000
     16585       133  QMPE      H11X           23.7043200180        3.7079315166       -4.1720007271  MEMB      133             0.0000000000
     16586       133  QMPE      H11Y           24.8990193566        4.6004616489       -4.0805557318  MEMB      133             0.0000000000
     16587       133  QMPE      C312           24.6665110397        2.2232678733       -4.3037645759  MEMB      133             0.0000000000
     16588       133  QMPE      H12X           25.7234629863        2.0398354391       -4.5201967311  MEMB      133             0.0000000000
     16589       133  QMPE      H12Y           24.0350407118        1.5340627294       -4.9211102304  MEMB      133             0.0000000000
     16590       133  QMPE      C313           24.1872624156        2.0482154199       -2.8997311025  MEMB      133             0.0000000000
     16591       133  QMPE      H13X           24.8921025004        1.3256273324       -2.4654361179  MEMB      133             0.0000000000
     16592       133  QMPE      H13Y           24.3274236761        2.9936118997       -2.3310197985  MEMB      133             0.0000000000
     16593       133  QMPE      C314           22.7478357776        1.6064198884       -2.6711534311  MEMB      133             0.0000000000
     16594       133  QMPE      H14X           22.3293182598        0.7232836465       -3.1355368992  MEMB      133             0.0000000000
     16595       133  QMPE      H14Y           21.9411193690        2.3466149381       -2.7964641789  MEMB      133             0.0000000000
     16596       133  QMPE      C315           22.8254579282        1.3875949068       -1.2261814780  MEMB      133             0.0000000000
     16597       133  QMPE      H15X           23.7899728139        1.0995447863       -0.7908860394  MEMB      133             0.0000000000
     16598       133  QMPE      H15Y           22.8386915033        2.4081178526       -0.9778466143  MEMB      133             0.0000000000
     16599       133  QMPE      H15Z           22.0389148922        0.6586310559       -0.8866767597  MEMB      133             0.0000000000
     16600       134  OYPE      N             -25.0015939681       -9.0085478595      -21.1631964875  MEMB      134             0.0000000000
     16601       134  OYPE      HN1           -24.5161721157       -9.6307345590      -21.8518680051  MEMB      134             0.0000000000
     16602       134  OYPE      HN2           -25.7095738470       -9.5439783623      -20.6103227472  MEMB      134             0.0000000000
     16603       134  OYPE      HN3           -25.4877373901       -8.2331351332      -21.6671519457  MEMB      134             0.0000000000
     16604       134  OYPE      C12           -23.9946374568       -8.3847928662      -20.2196337122  MEMB      134             0.0000000000
     16605       134  OYPE      H12A          -23.2722294828       -7.7951456696      -20.8179340352  MEMB      134             0.0000000000
     16606       134  OYPE      H12B          -23.4201128104       -9.2144903100      -19.7544626589  MEMB      134             0.0000000000
     16607       134  OYPE      C11           -24.6744941684       -7.5884137916      -19.0687053250  MEMB      134             0.0000000000
     16608       134  OYPE      H11A          -23.8634017777       -7.2658942094      -18.3686506250  MEMB      134             0.0000000000
     16609       134  OYPE      H11B          -25.3259091223       -8.3128533287      -18.5258645043  MEMB      134             0.0000000000
     16610       134  OYPE      P             -26.2486828904       -5.6811290101      -18.2756185209  MEMB      134             0.0000000000
     16611       134  OYPE      O13           -26.9713964493       -4.5217833988      -18.8506313275  MEMB      134             0.0000000000
     16612       134  OYPE      O14           -25.3242293755       -5.4619271158      -17.1524130036  MEMB      134             0.0000000000
     16613       134  OYPE      O11           -27.2333556108       -6.8395411210      -17.8838563300  MEMB      134             0.0000000000
     16614       134  OYPE      O12           -25.4506525468       -6.4430052277      -19.4707412109  MEMB      134             0.0000000000
     16615       134  OYPE      C1            -28.3533974588       -7.0724760629      -18.7229680872  MEMB      134             0.0000000000
     16616       134  OYPE      HA            -28.0449560144       -7.2387610658      -19.7806055719  MEMB      134             0.0000000000
     16617       134  OYPE      HB            -29.0518825338       -6.1983137630      -18.6876742307  MEMB      134             0.0000000000
     16618       134  OYPE      C2            -29.0962687031       -8.3188340860      -18.2061702456  MEMB      134             0.0000000000
     16619       134  OYPE      HS            -30.1492687514       -8.2807511252      -18.5620156457  MEMB      134             0.0000000000
     16620       134  OYPE      O21           -29.1232226603       -8.3804104394      -16.7832224591  MEMB      134             0.0000000000
     16621       134  OYPE      C21           -29.7250118336       -7.3960164380      -16.1753451750  MEMB      134             0.0000000000
     16622       134  OYPE      O22           -30.3832376013       -6.5006117375      -16.6769159055  MEMB      134             0.0000000000
     16623       134  OYPE      C22           -29.5414530301       -7.5996516677      -14.6680094906  MEMB      134             0.0000000000
     16624       134  OYPE      H2R           -28.6036677637       -8.1183164160      -14.4226870101  MEMB      134             0.0000000000
     16625       134  OYPE      H2S           -30.4192165884       -8.1403947520      -14.2654072849  MEMB      134             0.0000000000
     16626       134  OYPE      C3            -28.4475442004       -9.6374972894      -18.7788815766  MEMB      134             0.0000000000
     16627       134  OYPE      HX            -28.2924204419       -9.4956651398      -19.8694789371  MEMB      134             0.0000000000
     16628       134  OYPE      HY            -29.1917783354      -10.4544042143      -18.6530981535  MEMB      134             0.0000000000
     16629       134  OYPE      O31           -27.1654771666      -10.0317106682      -18.2685896987  MEMB      134             0.0000000000
     16630       134  OYPE      C31           -27.2356341021      -10.6675970914      -17.1032523739  MEMB      134             0.0000000000
     16631       134  OYPE      O32           -28.2312976516      -10.8721387127      -16.4417861710  MEMB      134             0.0000000000
     16632       134  OYPE      C32           -25.8564051553      -11.0671341498      -16.6943096699  MEMB      134             0.0000000000
     16633       134  OYPE      H2X           -25.8511078459      -12.1695703396      -16.6569528730  MEMB      134             0.0000000000
     16634       134  OYPE      H2Y           -25.0876767356      -10.7785148455      -17.4358715493  MEMB      134             0.0000000000
     16635       134  OYPE      C23           -29.4510405145       -6.2228621015      -14.0714983745  MEMB      134             0.0000000000
     16636       134  OYPE      H3R           -30.4673163184       -5.8555640549      -14.2375152358  MEMB      134             0.0000000000
     16637       134  OYPE      H3S           -28.7320792740       -5.6496189282      -14.7106794731  MEMB      134             0.0000000000
     16638       134  OYPE      C24           -29.0849825094       -6.1143113139      -12.5948283267  MEMB      134             0.0000000000
     16639       134  OYPE      H4R           -27.9838901403       -6.2404991573      -12.5067702304  MEMB      134             0.0000000000
     16640       134  OYPE      H4S           -29.6342227160       -6.9001413779      -12.0341773357  MEMB      134             0.0000000000
     16641       134  OYPE      C25           -29.4674047917       -4.8578348285      -11.8402359740  MEMB      134             0.0000000000
     16642       134  OYPE      H5R           -30.5625232529       -4.7907358543      -11.7116189580  MEMB      134             0.0000000000
     16643       134  OYPE      H5S           -29.2559751798       -3.8344577314      -12.1908973428  MEMB      134             0.0000000000
     16644       134  OYPE      C26           -28.5591879058       -4.6502432990      -10.6614152236  MEMB      134             0.0000000000
     16645       134  OYPE      H6R           -29.1381637266       -3.8159553241      -10.4021310027  MEMB      134             0.0000000000
     16646       134  OYPE      H6S           -27.5593516261       -4.2380356064      -10.9108107646  MEMB      134             0.0000000000
     16647       134  OYPE      C27           -28.5148755019       -5.6905833878       -9.5735723733  MEMB      134             0.0000000000
     16648       134  OYPE      H7R           -27.9657580914       -6.5262490736      -10.0460630898  MEMB      134             0.0000000000
     16649       134  OYPE      H7S           -29.5406615866       -6.0403404526       -9.3140723820  MEMB      134             0.0000000000
     16650       134  OYPE      C28           -27.7732941930       -5.2224027348       -8.2993595542  MEMB      134             0.0000000000
     16651       134  OYPE      H8R           -27.6732343233       -6.1266795387       -7.6643206479  MEMB      134             0.0000000000
     16652       134  OYPE      H8S           -28.4270719308       -4.5154424646       -7.7419625766  MEMB      134             0.0000000000
     16653       134  OYPE      C29           -26.3895743397       -4.6395361065       -8.4845029309  MEMB      134             0.0000000000
     16654       134  OYPE      H9R           -25.7063260711       -5.2083493868       -9.1306410174  MEMB      134             0.0000000000
     16655       134  OYPE      C210          -25.9727387904       -3.4583821928       -8.0030239592  MEMB      134             0.0000000000
     16656       134  OYPE      H10R          -24.9341216938       -3.1286967904       -8.1728898128  MEMB      134             0.0000000000
     16657       134  OYPE      C211          -26.8220443422       -2.5139141672       -7.2032087129  MEMB      134             0.0000000000
     16658       134  OYPE      H11R          -27.8385060236       -2.4694106048       -7.5751169407  MEMB      134             0.0000000000
     16659       134  OYPE      H11S          -26.5662827675       -1.5044421338       -7.4759073361  MEMB      134             0.0000000000
     16660       134  OYPE      C212          -27.1319081175       -2.8070753255       -5.7431278304  MEMB      134             0.0000000000
     16661       134  OYPE      H12R          -26.2084953035       -3.0197170648       -5.1740717067  MEMB      134             0.0000000000
     16662       134  OYPE      H12S          -27.7699891299       -3.7178373739       -5.7980457223  MEMB      134             0.0000000000
     16663       134  OYPE      C213          -28.0427008605       -1.7867390363       -5.0475415321  MEMB      134             0.0000000000
     16664       134  OYPE      H13R          -28.9163492068       -2.2881535735       -4.6291815314  MEMB      134             0.0000000000
     16665       134  OYPE      H13S          -28.3490104889       -0.9580643268       -5.7432753854  MEMB      134             0.0000000000
     16666       134  OYPE      C214          -27.3857147979       -1.1585654099       -3.8480292934  MEMB      134             0.0000000000
     16667       134  OYPE      H14R          -27.9942499801       -0.3521203833       -3.3871560252  MEMB      134             0.0000000000
     16668       134  OYPE      H14S          -26.6837461580       -0.7182340447       -4.5584251615  MEMB      134             0.0000000000
     16669       134  OYPE      C215          -26.7467676581       -2.0366888097       -2.7476867682  MEMB      134             0.0000000000
     16670       134  OYPE      H15R          -26.2104833531       -1.4799075036       -1.9456859994  MEMB      134             0.0000000000
     16671       134  OYPE      H15S          -25.9964688766       -2.7594716064       -3.1375767656  MEMB      134             0.0000000000
     16672       134  OYPE      C216          -27.8471489898       -2.7240723476       -2.0035854166  MEMB      134             0.0000000000
     16673       134  OYPE      H16R          -28.6702502356       -1.9918933176       -1.8269166760  MEMB      134             0.0000000000
     16674       134  OYPE      H16S          -27.5089334619       -3.1084396224       -1.0232920044  MEMB      134             0.0000000000
     16675       134  OYPE      H16T          -28.1902921487       -3.5498924834       -2.6610609620  MEMB      134             0.0000000000
     16676       134  OYPE      C33           -25.6655014012      -10.4971804930      -15.2839945727  MEMB      134             0.0000000000
     16677       134  OYPE      H3X           -24.7066917211      -10.9079595325      -14.9000170769  MEMB      134             0.0000000000
     16678       134  OYPE      H3Y           -26.4846830331      -10.8293248244      -14.6041687076  MEMB      134             0.0000000000
     16679       134  OYPE      C34           -25.6227645187       -8.9649178134      -15.2140449093  MEMB      134             0.0000000000
     16680       134  OYPE      H4X           -24.9510350710       -8.6368143964      -16.0388779293  MEMB      134             0.0000000000
     16681       134  OYPE      H4Y           -26.6127485699       -8.4986303844      -15.4167870066  MEMB      134             0.0000000000
     16682       134  OYPE      C35           -25.0804741584       -8.4898321866      -13.8487730156  MEMB      134             0.0000000000
     16683       134  OYPE      H5X           -24.9154518068       -7.3933520356      -13.8577005571  MEMB      134             0.0000000000
     16684       134  OYPE      H5Y           -24.0855548407       -8.9818978864      -13.7508952031  MEMB      134             0.0000000000
     16685       134  OYPE      C36           -25.9575819116       -8.8088656966      -12.6124493158  MEMB      134             0.0000000000
     16686       134  OYPE      H6X           -27.0325995522       -8.7052983011      -12.8884273522  MEMB      134             0.0000000000
     16687       134  OYPE      H6Y           -25.8019733835       -9.8705325511      -12.3310465606  MEMB      134             0.0000000000
     16688       134  OYPE      C37           -25.6646809481       -7.9331508030      -11.3660426775  MEMB      134             0.0000000000
     16689       134  OYPE      H7X           -25.8779233788       -6.8594225641      -11.5826912748  MEMB      134             0.0000000000
     16690       134  OYPE      H7Y           -26.3278568878       -8.2576211931      -10.5277177981  MEMB      134             0.0000000000
     16691       134  OYPE      C38           -24.2245499815       -8.0088820589      -10.8300267947  MEMB      134             0.0000000000
     16692       134  OYPE      H8X           -23.5059310856       -7.6837958411      -11.6102494120  MEMB      134             0.0000000000
     16693       134  OYPE      H8Y           -24.1457300727       -7.2675160810       -9.9995130763  MEMB      134             0.0000000000
     16694       134  OYPE      C39           -23.8862601739       -9.3988664174      -10.3609936320  MEMB      134             0.0000000000
     16695       134  OYPE      H9X           -23.4284667556      -10.0440845698      -11.1296949876  MEMB      134             0.0000000000
     16696       134  OYPE      C310          -24.1369749047       -9.8930123961       -9.1357399029  MEMB      134             0.0000000000
     16697       134  OYPE      H10X          -23.8267314194      -10.9185031979       -8.9019897094  MEMB      134             0.0000000000
     16698       134  OYPE      C311          -24.7995174033       -9.1789239260       -7.9841133102  MEMB      134             0.0000000000
     16699       134  OYPE      H11X          -25.1352795369       -8.1547407065       -8.2616793470  MEMB      134             0.0000000000
     16700       134  OYPE      H11Y          -25.7037544617       -9.7572089051       -7.6861607310  MEMB      134             0.0000000000
     16701       134  OYPE      C312          -23.8916532540       -9.1221294266       -6.7319946682  MEMB      134             0.0000000000
     16702       134  OYPE      H12X          -22.8901226040       -8.7216436490       -6.9946077374  MEMB      134             0.0000000000
     16703       134  OYPE      H12Y          -23.7685174660      -10.1797676671       -6.4050976746  MEMB      134             0.0000000000
     16704       134  OYPE      C313          -24.3951028009       -8.2287042413       -5.5723099444  MEMB      134             0.0000000000
     16705       134  OYPE      H13X          -23.7500442461       -8.2992372361       -4.6745901669  MEMB      134             0.0000000000
     16706       134  OYPE      H13Y          -24.4459395219       -7.1767936462       -5.9304726459  MEMB      134             0.0000000000
     16707       134  OYPE      C314          -25.8038709792       -8.5279621609       -5.1499843100  MEMB      134             0.0000000000
     16708       134  OYPE      H14X          -25.8840120049       -9.5713489052       -4.7739570996  MEMB      134             0.0000000000
     16709       134  OYPE      H14Y          -26.3086834089       -8.4278180410       -6.1384127079  MEMB      134             0.0000000000
     16710       134  OYPE      C315          -26.5446175769       -7.4938940732       -4.2836122292  MEMB      134             0.0000000000
     16711       134  OYPE      H15X          -27.6054706370       -7.8038291723       -4.1655942917  MEMB      134             0.0000000000
     16712       134  OYPE      H15Y          -26.5518836965       -6.5612698113       -4.8906858419  MEMB      134             0.0000000000
     16713       134  OYPE      C316          -25.9194192403       -7.2372981639       -2.9070731914  MEMB      134             0.0000000000
     16714       134  OYPE      H16X          -24.8917301995       -6.8762586148       -3.1121439614  MEMB      134             0.0000000000
     16715       134  OYPE      H16Y          -25.8019885462       -8.1825323860       -2.3379989586  MEMB      134             0.0000000000
     16716       134  OYPE      C317          -26.7219035807       -6.2968351843       -1.9807672066  MEMB      134             0.0000000000
     16717       134  OYPE      H17X          -26.7516380075       -5.2629731364       -2.3815199828  MEMB      134             0.0000000000
     16718       134  OYPE      H17Y          -26.1916603214       -6.2275502815       -1.0075457316  MEMB      134             0.0000000000
     16719       134  OYPE      C318          -28.1670712352       -6.7249485889       -1.6965832996  MEMB      134             0.0000000000
     16720       134  OYPE      H18X          -28.2169580214       -7.6660789939       -1.1151957350  MEMB      134             0.0000000000
     16721       134  OYPE      H18Y          -28.6684747100       -5.9354834664       -1.1001313894  MEMB      134             0.0000000000
     16722       134  OYPE      H18Z          -28.7351224767       -6.8658890448       -2.6393443086  MEMB      134             0.0000000000
     16723       135  POPE      N              17.4971477353      -23.8772716410      -18.8143329766  MEMB      135             0.0000000000
     16724       135  POPE      HN1            17.7675299118      -23.8852315915      -17.8080349520  MEMB      135             0.0000000000
     16725       135  POPE      HN2            16.4602672405      -23.7715548301      -18.8971518944  MEMB      135             0.0000000000
     16726       135  POPE      HN3            17.8166602627      -24.7568911751      -19.2804575104  MEMB      135             0.0000000000
     16727       135  POPE      C12            18.1714156237      -22.7050657176      -19.4662176010  MEMB      135             0.0000000000
     16728       135  POPE      H12A           17.8829753743      -22.7313426606      -20.5312883103  MEMB      135             0.0000000000
     16729       135  POPE      H12B           19.2697407072      -22.8502148162      -19.3631411344  MEMB      135             0.0000000000
     16730       135  POPE      C11            17.7636376237      -21.3271361795      -18.9084757722  MEMB      135             0.0000000000
     16731       135  POPE      H11A           18.4003961171      -20.6301706591      -19.5030209664  MEMB      135             0.0000000000
     16732       135  POPE      H11B           18.0503345641      -21.2423473260      -17.8336292311  MEMB      135             0.0000000000
     16733       135  POPE      P              15.8718506126      -19.4815941379      -19.0303043848  MEMB      135             0.0000000000
     16734       135  POPE      O13            15.0315098653      -19.1990446022      -20.2139458933  MEMB      135             0.0000000000
     16735       135  POPE      O14            17.0174248835      -18.6005373646      -18.7398022355  MEMB      135             0.0000000000
     16736       135  POPE      O11            14.9238124789      -19.5639605116      -17.7762534831  MEMB      135             0.0000000000
     16737       135  POPE      O12            16.3756532547      -21.0262697829      -19.1170722664  MEMB      135             0.0000000000
     16738       135  POPE      C1             13.8033666838      -20.4796775018      -17.7827819059  MEMB      135             0.0000000000
     16739       135  POPE      HA             13.9465657090      -21.3626943358      -18.4411817923  MEMB      135             0.0000000000
     16740       135  POPE      HB             12.8783890807      -19.9507190585      -18.1015694732  MEMB      135             0.0000000000
     16741       135  POPE      C2             13.4927877061      -21.0152699076      -16.3829092427  MEMB      135             0.0000000000
     16742       135  POPE      HS             12.5278108792      -21.5735793548      -16.3689447593  MEMB      135             0.0000000000
     16743       135  POPE      O21            13.3890726765      -19.9403343884      -15.5352703620  MEMB      135             0.0000000000
     16744       135  POPE      C21            12.3112233808      -19.5564178086      -15.0565164145  MEMB      135             0.0000000000
     16745       135  POPE      O22            11.1564644694      -19.8881838399      -15.1741898499  MEMB      135             0.0000000000
     16746       135  POPE      C22            12.7282555628      -18.4768535277      -14.2234167729  MEMB      135             0.0000000000
     16747       135  POPE      H2R            11.7863250482      -17.8696644268      -14.1999964926  MEMB      135             0.0000000000
     16748       135  POPE      H2S            13.6289254617      -18.0460911688      -14.6809584595  MEMB      135             0.0000000000
     16749       135  POPE      C3             14.5908716559      -21.8787043658      -15.7884163309  MEMB      135             0.0000000000
     16750       135  POPE      HX             14.7236323888      -22.8170819598      -16.3684485150  MEMB      135             0.0000000000
     16751       135  POPE      HY             14.1748379200      -22.0460523299      -14.7738317701  MEMB      135             0.0000000000
     16752       135  POPE      O31            15.8050617068      -21.1493334528      -15.6066576957  MEMB      135             0.0000000000
     16753       135  POPE      C31            16.7156409415      -21.7582646552      -14.9276311590  MEMB      135             0.0000000000
     16754       135  POPE      O32            16.7977845517      -22.9455244576      -14.6983730379  MEMB      135             0.0000000000
     16755       135  POPE      C32            17.7725354442      -20.8059353626      -14.6241968003  MEMB      135             0.0000000000
     16756       135  POPE      H2X            17.6533083411      -20.4626445503      -13.5814761407  MEMB      135             0.0000000000
     16757       135  POPE      H2Y            17.7715145849      -19.9211133959      -15.2911582549  MEMB      135             0.0000000000
     16758       135  POPE      C23            13.3478439302      -18.8517438237      -12.8902103359  MEMB      135             0.0000000000
     16759       135  POPE      H3R            12.5095792992      -19.3729518911      -12.6838244846  MEMB      135             0.0000000000
     16760       135  POPE      H3S            13.0299850014      -18.2781380626      -12.0170765113  MEMB      135             0.0000000000
     16761       135  POPE      C24            14.8834956915      -19.2085324549      -12.9371658266  MEMB      135             0.0000000000
     16762       135  POPE      H4R            15.5959077827      -18.4061980037      -13.2583289518  MEMB      135             0.0000000000
     16763       135  POPE      H4S            15.0308653398      -19.7536376002      -13.8687140403  MEMB      135             0.0000000000
     16764       135  POPE      C25            15.6617827075      -19.5623029855      -11.6489649961  MEMB      135             0.0000000000
     16765       135  POPE      H5R            15.3049843483      -19.1604544991      -10.6813093957  MEMB      135             0.0000000000
     16766       135  POPE      H5S            16.7029782037      -19.1916383679      -11.7651837427  MEMB      135             0.0000000000
     16767       135  POPE      C26            15.7199324758      -21.0247337824      -11.4788328567  MEMB      135             0.0000000000
     16768       135  POPE      H6R            16.6847152262      -21.4702271579      -11.2982014111  MEMB      135             0.0000000000
     16769       135  POPE      H6S            15.3348199915      -21.3460082823      -12.4697593034  MEMB      135             0.0000000000
     16770       135  POPE      C27            14.9444767657      -21.4589233954      -10.2743459674  MEMB      135             0.0000000000
     16771       135  POPE      H7R            14.4736755475      -22.4549121750      -10.4109521554  MEMB      135             0.0000000000
     16772       135  POPE      H7S            14.1705710029      -20.7280273882      -10.2751009116  MEMB      135             0.0000000000
     16773       135  POPE      C28            15.3330191243      -20.9858987083       -8.9338139429  MEMB      135             0.0000000000
     16774       135  POPE      H8R            14.5465989193      -21.1109524490       -8.2705531943  MEMB      135             0.0000000000
     16775       135  POPE      H8S            15.5439899528      -19.9222838777       -8.7859890399  MEMB      135             0.0000000000
     16776       135  POPE      C29            16.2346987581      -21.8976519631       -8.3958306072  MEMB      135             0.0000000000
     16777       135  POPE      H91            17.1598099827      -21.8514451243       -8.9765909547  MEMB      135             0.0000000000
     16778       135  POPE      C210           15.9177546352      -22.8141735426       -7.4933698381  MEMB      135             0.0000000000
     16779       135  POPE      H101           16.6395045885      -22.9271087031       -6.7176472012  MEMB      135             0.0000000000
     16780       135  POPE      C211           14.8809757424      -23.3862065406       -6.6748218726  MEMB      135             0.0000000000
     16781       135  POPE      H11R           15.1887898302      -24.4239978868       -6.4582257807  MEMB      135             0.0000000000
     16782       135  POPE      H11S           13.9277711252      -23.5121601118       -7.1582227355  MEMB      135             0.0000000000
     16783       135  POPE      C212           14.8875355568      -22.5899772233       -5.3865754402  MEMB      135             0.0000000000
     16784       135  POPE      H12R           15.8674921375      -22.4274037409       -4.9770762656  MEMB      135             0.0000000000
     16785       135  POPE      H12S           14.2847777318      -23.1933093562       -4.6944699687  MEMB      135             0.0000000000
     16786       135  POPE      C213           15.0721599256      -21.0734399633       -5.2678861285  MEMB      135             0.0000000000
     16787       135  POPE      H13R           14.2282168064      -20.9837334523       -5.8305494848  MEMB      135             0.0000000000
     16788       135  POPE      H13S           15.8108826547      -20.6233089264       -5.9525686616  MEMB      135             0.0000000000
     16789       135  POPE      C214           15.0722515451      -20.4382387575       -3.8351002135  MEMB      135             0.0000000000
     16790       135  POPE      H14R           16.0825561785      -20.4247781616       -3.4204239745  MEMB      135             0.0000000000
     16791       135  POPE      H14S           14.2576585211      -20.8179541546       -3.1515681429  MEMB      135             0.0000000000
     16792       135  POPE      C215           14.8690097498      -19.0347345056       -3.7444147000  MEMB      135             0.0000000000
     16793       135  POPE      H15R           13.9647183229      -19.2031600429       -4.0139459955  MEMB      135             0.0000000000
     16794       135  POPE      H15S           15.1581008274      -18.6922654455       -4.6777780116  MEMB      135             0.0000000000
     16795       135  POPE      C216           14.5430601035      -18.1201552154       -2.6018748154  MEMB      135             0.0000000000
     16796       135  POPE      H16R           13.8261134243      -17.3121291838       -2.9058890711  MEMB      135             0.0000000000
     16797       135  POPE      H16S           15.5541528157      -17.8410512572       -2.7041429596  MEMB      135             0.0000000000
     16798       135  POPE      C217           14.3492455916      -18.6373751971       -1.2023296881  MEMB      135             0.0000000000
     16799       135  POPE      H17R           15.1378691043      -19.4072102628       -1.0628677036  MEMB      135             0.0000000000
     16800       135  POPE      H17S           13.3648137236      -19.1211588207       -1.0374339736  MEMB      135             0.0000000000
     16801       135  POPE      C218           14.5359042009      -17.4519091853       -0.2717317728  MEMB      135             0.0000000000
     16802       135  POPE      H18R           15.6077437961      -17.1737476408       -0.2955966594  MEMB      135             0.0000000000
     16803       135  POPE      H18S           14.2439451670      -17.6643805967        0.7741904493  MEMB      135             0.0000000000
     16804       135  POPE      H18T           13.9744870134      -16.5577639146       -0.6262485737  MEMB      135             0.0000000000
     16805       135  POPE      C33            19.0426928166      -21.5513756910      -14.8890058546  MEMB      135             0.0000000000
     16806       135  POPE      H3X            19.1392717978      -22.3623530412      -15.6461044726  MEMB      135             0.0000000000
     16807       135  POPE      H3Y            19.1691136076      -22.2616646712      -14.0336104066  MEMB      135             0.0000000000
     16808       135  POPE      C34            20.0673154715      -20.4673620240      -15.3072652681  MEMB      135             0.0000000000
     16809       135  POPE      H4X            20.1629787051      -20.1734340145      -16.3558132326  MEMB      135             0.0000000000
     16810       135  POPE      H4Y            20.8319694063      -21.2329456496      -15.3793417006  MEMB      135             0.0000000000
     16811       135  POPE      C35            20.2329190341      -19.0781024424      -14.5218568566  MEMB      135             0.0000000000
     16812       135  POPE      H5X            19.4772428614      -18.3196599320      -14.6675586721  MEMB      135             0.0000000000
     16813       135  POPE      H5Y            21.2655047305      -18.6294307855      -14.7509285100  MEMB      135             0.0000000000
     16814       135  POPE      C36            19.7204590662      -19.0858641749      -13.0391688661  MEMB      135             0.0000000000
     16815       135  POPE      H6X            20.6106952964      -19.5858793713      -13.3690230854  MEMB      135             0.0000000000
     16816       135  POPE      H6Y            19.1556416769      -19.9268553946      -12.6627041913  MEMB      135             0.0000000000
     16817       135  POPE      C37            19.9339324905      -18.0959714496      -11.7894920123  MEMB      135             0.0000000000
     16818       135  POPE      H7X            19.1075823241      -17.4184206221      -11.9319157413  MEMB      135             0.0000000000
     16819       135  POPE      H7Y            20.8313005303      -17.4871651818      -11.8828061740  MEMB      135             0.0000000000
     16820       135  POPE      C38            20.0751577603      -18.4246802740      -10.2276273843  MEMB      135             0.0000000000
     16821       135  POPE      H8X            20.3877113626      -17.5128896691       -9.6725067235  MEMB      135             0.0000000000
     16822       135  POPE      H8Y            20.7469786527      -19.2334143113       -9.8461138437  MEMB      135             0.0000000000
     16823       135  POPE      C39            19.2298954288      -19.2913186767       -9.4108942946  MEMB      135             0.0000000000
     16824       135  POPE      H9X            19.2859512125      -20.3885398370       -9.6546805735  MEMB      135             0.0000000000
     16825       135  POPE      H9Y            18.3492290092      -18.8017125586       -9.8216594705  MEMB      135             0.0000000000
     16826       135  POPE      C310           19.6976531621      -19.1151164550       -7.9553276097  MEMB      135             0.0000000000
     16827       135  POPE      H10X           20.0729712521      -18.0812611641       -7.7560855450  MEMB      135             0.0000000000
     16828       135  POPE      H10Y           20.5486734950      -19.7882771412       -7.6634113286  MEMB      135             0.0000000000
     16829       135  POPE      C311           18.4523841850      -19.4989609602       -7.2321602892  MEMB      135             0.0000000000
     16830       135  POPE      H11X           18.2572886597      -20.5519357771       -7.5208692684  MEMB      135             0.0000000000
     16831       135  POPE      H11Y           17.6297751491      -18.8602357609       -7.6263900499  MEMB      135             0.0000000000
     16832       135  POPE      C312           18.5822440496      -19.4724753061       -5.7444315564  MEMB      135             0.0000000000
     16833       135  POPE      H12X           19.5226883134      -19.9984779689       -5.4538954862  MEMB      135             0.0000000000
     16834       135  POPE      H12Y           17.7083148734      -19.9662200157       -5.2747287146  MEMB      135             0.0000000000
     16835       135  POPE      C313           18.5978595301      -18.0659227240       -5.2139003670  MEMB      135             0.0000000000
     16836       135  POPE      H13X           19.4013003934      -17.4992338575       -5.7282291388  MEMB      135             0.0000000000
     16837       135  POPE      H13Y           18.8779845847      -18.2444182339       -4.1509545530  MEMB      135             0.0000000000
     16838       135  POPE      C314           17.2444926208      -17.3077544951       -5.3890836340  MEMB      135             0.0000000000
     16839       135  POPE      H14X           16.6416368103      -17.9226054091       -4.7793256159  MEMB      135             0.0000000000
     16840       135  POPE      H14Y           17.0014566787      -17.3350426369       -6.4545230554  MEMB      135             0.0000000000
     16841       135  POPE      C315           16.7686914673      -15.9437300808       -4.8043738712  MEMB      135             0.0000000000
     16842       135  POPE      H15X           15.8132524903      -15.5239612868       -5.1490497697  MEMB      135             0.0000000000
     16843       135  POPE      H15Y           17.5202978017      -15.1507440870       -4.9184727053  MEMB      135             0.0000000000
     16844       135  POPE      C316           16.6703966105      -15.8524904881       -3.3443183265  MEMB      135             0.0000000000
     16845       135  POPE      H16X           16.5047056423      -16.4671851838       -2.4965929441  MEMB      135             0.0000000000
     16846       135  POPE      H16Y           16.8042655581      -14.7995017667       -3.0401729642  MEMB      135             0.0000000000
     16847       135  POPE      H16Z           17.5637762066      -16.5023461229       -3.2518334385  MEMB      135             0.0000000000
     16848       136  OYPE      N              -3.8469709224       24.2842696540      -21.1061272937  MEMB      136             0.0000000000
     16849       136  OYPE      HN1            -3.7328126535       23.5327175607      -20.4001477653  MEMB      136             0.0000000000
     16850       136  OYPE      HN2            -4.8433917497       24.2796302738      -21.4093312091  MEMB      136             0.0000000000
     16851       136  OYPE      HN3            -3.2259378704       24.1402793959      -21.9289346054  MEMB      136             0.0000000000
     16852       136  OYPE      C12            -3.5153840649       25.5980592242      -20.4313276581  MEMB      136             0.0000000000
     16853       136  OYPE      H12A           -3.7300746819       26.3981480948      -21.1661674371  MEMB      136             0.0000000000
     16854       136  OYPE      H12B           -2.4362389459       25.5943066890      -20.1701545697  MEMB      136             0.0000000000
     16855       136  OYPE      C11            -4.2918191627       25.8486993471      -19.1236278569  MEMB      136             0.0000000000
     16856       136  OYPE      H11A           -3.8682011432       26.7929071147      -18.6844252602  MEMB      136             0.0000000000
     16857       136  OYPE      H11B           -4.1033030038       25.0308154386      -18.3945056281  MEMB      136             0.0000000000
     16858       136  OYPE      P              -6.5929147357       26.7217241845      -18.2654970619  MEMB      136             0.0000000000
     16859       136  OYPE      O13            -7.9280079229       26.9796476207      -18.8606283007  MEMB      136             0.0000000000
     16860       136  OYPE      O14            -5.8215131184       27.7792880163      -17.5915763469  MEMB      136             0.0000000000
     16861       136  OYPE      O11            -6.7955338504       25.5718090527      -17.2176488627  MEMB      136             0.0000000000
     16862       136  OYPE      O12            -5.6905280031       25.9753234705      -19.3759000779  MEMB      136             0.0000000000
     16863       136  OYPE      C1             -7.3474689827       24.3341619350      -17.6440824173  MEMB      136             0.0000000000
     16864       136  OYPE      HA             -6.8523512340       23.9316147313      -18.5509922566  MEMB      136             0.0000000000
     16865       136  OYPE      HB             -8.4316310479       24.4621679217      -17.8728782701  MEMB      136             0.0000000000
     16866       136  OYPE      C2             -7.2549973584       23.2921054809      -16.5182526230  MEMB      136             0.0000000000
     16867       136  OYPE      HS             -7.9135231677       22.5070847424      -16.6330108161  MEMB      136             0.0000000000
     16868       136  OYPE      O21            -7.6306017013       23.9349951674      -15.3057944619  MEMB      136             0.0000000000
     16869       136  OYPE      C21            -8.9443140167       24.2739518652      -15.2268962672  MEMB      136             0.0000000000
     16870       136  OYPE      O22            -9.8186044972       23.9673453071      -16.0177630119  MEMB      136             0.0000000000
     16871       136  OYPE      C22            -9.2069966705       24.9807997095      -13.8916141882  MEMB      136             0.0000000000
     16872       136  OYPE      H2R            -9.4270856617       24.2435151971      -13.1416238751  MEMB      136             0.0000000000
     16873       136  OYPE      H2S           -10.1317663354       25.5705267071      -13.8875083646  MEMB      136             0.0000000000
     16874       136  OYPE      C3             -5.8593980929       22.5914065206      -16.4218226821  MEMB      136             0.0000000000
     16875       136  OYPE      HX             -5.6904097131       22.0225146718      -17.3667295606  MEMB      136             0.0000000000
     16876       136  OYPE      HY             -5.7858265948       21.8045897983      -15.6357955935  MEMB      136             0.0000000000
     16877       136  OYPE      O31            -4.8483330757       23.5717532699      -16.3490369939  MEMB      136             0.0000000000
     16878       136  OYPE      C31            -4.4676560282       23.8600218803      -15.1417371769  MEMB      136             0.0000000000
     16879       136  OYPE      O32            -4.5946862237       23.1837938936      -14.1334809033  MEMB      136             0.0000000000
     16880       136  OYPE      C32            -3.8819770263       25.2462750627      -15.2743635765  MEMB      136             0.0000000000
     16881       136  OYPE      H2X            -3.1451486704       25.2029086068      -16.1044428930  MEMB      136             0.0000000000
     16882       136  OYPE      H2Y            -4.7281087628       25.9114855373      -15.5633731597  MEMB      136             0.0000000000
     16883       136  OYPE      C23            -7.9319177580       25.6799871090      -13.4365724780  MEMB      136             0.0000000000
     16884       136  OYPE      H3R            -7.7160128559       26.4575994220      -14.1937983541  MEMB      136             0.0000000000
     16885       136  OYPE      H3S            -7.0686563566       24.9630261118      -13.3919051875  MEMB      136             0.0000000000
     16886       136  OYPE      C24            -7.9443990915       26.4155582855      -12.1195398050  MEMB      136             0.0000000000
     16887       136  OYPE      H4R            -8.4281930068       27.3934124099      -12.1298961245  MEMB      136             0.0000000000
     16888       136  OYPE      H4S            -6.8506478852       26.5315650054      -11.9168624537  MEMB      136             0.0000000000
     16889       136  OYPE      C25            -8.6759013613       25.8388977106      -10.9643762104  MEMB      136             0.0000000000
     16890       136  OYPE      H5R            -8.1243306864       25.0155159293      -10.8040683825  MEMB      136             0.0000000000
     16891       136  OYPE      H5S            -9.6147563798       25.2541232575      -11.0592760704  MEMB      136             0.0000000000
     16892       136  OYPE      C26            -7.9479471024       26.0715334951       -9.6721422657  MEMB      136             0.0000000000
     16893       136  OYPE      H6R            -8.5044889172       25.6245183925       -8.8476246325  MEMB      136             0.0000000000
     16894       136  OYPE      H6S            -8.0842165178       27.0090468754       -9.3152974963  MEMB      136             0.0000000000
     16895       136  OYPE      C27            -6.5674907779       26.7032092545       -9.5848254771  MEMB      136             0.0000000000
     16896       136  OYPE      H7R            -6.5419730572       27.5601109068      -10.2667997624  MEMB      136             0.0000000000
     16897       136  OYPE      H7S            -5.9046407121       25.8652329125       -9.8280980291  MEMB      136             0.0000000000
     16898       136  OYPE      C28            -6.3160071648       27.3489817153       -8.2107564035  MEMB      136             0.0000000000
     16899       136  OYPE      H8R            -5.3372174528       27.1948273381       -7.7533280063  MEMB      136             0.0000000000
     16900       136  OYPE      H8S            -6.8388024893       26.4593815552       -7.9844760259  MEMB      136             0.0000000000
     16901       136  OYPE      C29            -7.2177372359       28.2677087380       -7.4544712419  MEMB      136             0.0000000000
     16902       136  OYPE      H9R            -8.2097147548       27.9112757205       -7.5123231229  MEMB      136             0.0000000000
     16903       136  OYPE      C210           -7.0297193398       29.3784465190       -6.7854793765  MEMB      136             0.0000000000
     16904       136  OYPE      H10R           -7.9086418062       29.9337118280       -6.4178769588  MEMB      136             0.0000000000
     16905       136  OYPE      C211           -5.6863091916       29.9839484756       -6.6727672803  MEMB      136             0.0000000000
     16906       136  OYPE      H11R           -5.7818569405       30.9624096139       -7.1768157147  MEMB      136             0.0000000000
     16907       136  OYPE      H11S           -4.9015300995       29.3788871584       -7.1881835114  MEMB      136             0.0000000000
     16908       136  OYPE      C212           -5.2544615552       30.1977069331       -5.2277114056  MEMB      136             0.0000000000
     16909       136  OYPE      H12R           -6.0439115497       30.7776811167       -4.7002446330  MEMB      136             0.0000000000
     16910       136  OYPE      H12S           -4.3548098115       30.8521029043       -5.2994733044  MEMB      136             0.0000000000
     16911       136  OYPE      C213           -4.9666238700       28.8723041402       -4.4816868450  MEMB      136             0.0000000000
     16912       136  OYPE      H13R           -3.9966964941       28.4492508182       -4.8357526207  MEMB      136             0.0000000000
     16913       136  OYPE      H13S           -5.7887051278       28.1606999058       -4.6254382999  MEMB      136             0.0000000000
     16914       136  OYPE      C214           -4.8796917347       28.9961653417       -2.9715338565  MEMB      136             0.0000000000
     16915       136  OYPE      H14R           -5.7059873883       29.5726022996       -2.5015289828  MEMB      136             0.0000000000
     16916       136  OYPE      H14S           -3.9317355730       29.5035613825       -2.9861784441  MEMB      136             0.0000000000
     16917       136  OYPE      C215           -4.3100536317       27.8933743686       -2.1101133237  MEMB      136             0.0000000000
     16918       136  OYPE      H15R           -4.7654274386       26.9740624611       -2.3907886471  MEMB      136             0.0000000000
     16919       136  OYPE      H15S           -4.4835461860       28.1265467091       -1.0392967682  MEMB      136             0.0000000000
     16920       136  OYPE      C216           -2.8339842956       27.7274741153       -2.2358812353  MEMB      136             0.0000000000
     16921       136  OYPE      H16R           -2.5224356510       27.2617468717       -3.2027557653  MEMB      136             0.0000000000
     16922       136  OYPE      H16S           -2.3979913357       27.1175245636       -1.4210872709  MEMB      136             0.0000000000
     16923       136  OYPE      H16T           -2.3667656112       28.7361061207       -2.1509379745  MEMB      136             0.0000000000
     16924       136  OYPE      C33            -3.1772266159       25.7839539046      -14.0288147118  MEMB      136             0.0000000000
     16925       136  OYPE      H3X            -2.5071134045       26.5928726620      -14.4022516023  MEMB      136             0.0000000000
     16926       136  OYPE      H3Y            -2.5642605407       24.9873052819      -13.5557864953  MEMB      136             0.0000000000
     16927       136  OYPE      C34            -4.1689587573       26.4091701814      -13.0511002249  MEMB      136             0.0000000000
     16928       136  OYPE      H4X            -4.5736058270       27.3444388741      -13.5100695885  MEMB      136             0.0000000000
     16929       136  OYPE      H4Y            -4.9942197996       25.6846310922      -12.8731897118  MEMB      136             0.0000000000
     16930       136  OYPE      C35            -3.5729805398       26.7907644882      -11.6953622784  MEMB      136             0.0000000000
     16931       136  OYPE      H5X            -4.3367860645       27.4053820765      -11.1675097706  MEMB      136             0.0000000000
     16932       136  OYPE      H5Y            -2.6808559904       27.4308592033      -11.8746512971  MEMB      136             0.0000000000
     16933       136  OYPE      C36            -3.1391701289       25.5856509280      -10.8438146023  MEMB      136             0.0000000000
     16934       136  OYPE      H6X            -3.7907145338       24.6984423417      -11.0113781696  MEMB      136             0.0000000000
     16935       136  OYPE      H6Y            -2.1286347146       25.3040735081      -11.2175128563  MEMB      136             0.0000000000
     16936       136  OYPE      C37            -3.0387699961       25.9074220935       -9.3397340731  MEMB      136             0.0000000000
     16937       136  OYPE      H7X            -2.5097973752       26.8803668356       -9.2419829807  MEMB      136             0.0000000000
     16938       136  OYPE      H7Y            -4.0384645685       26.0283855411       -8.8791263510  MEMB      136             0.0000000000
     16939       136  OYPE      C38            -2.2803729728       24.8248113861       -8.5646770763  MEMB      136             0.0000000000
     16940       136  OYPE      H8X            -2.8389429648       23.8612487466       -8.6870180331  MEMB      136             0.0000000000
     16941       136  OYPE      H8Y            -1.3131208561       24.6779336692       -9.0826623640  MEMB      136             0.0000000000
     16942       136  OYPE      C39            -1.9412423121       25.2294193162       -7.1452683128  MEMB      136             0.0000000000
     16943       136  OYPE      H9X            -1.3603840574       26.1260877602       -6.9896063237  MEMB      136             0.0000000000
     16944       136  OYPE      C310           -2.2119173899       24.5512602949       -6.0586305258  MEMB      136             0.0000000000
     16945       136  OYPE      H10X           -1.9812581571       24.8496579859       -5.0170277704  MEMB      136             0.0000000000
     16946       136  OYPE      C311           -2.9163613593       23.2957356812       -6.1519443725  MEMB      136             0.0000000000
     16947       136  OYPE      H11X           -3.6375066291       23.1847458137       -7.0284999035  MEMB      136             0.0000000000
     16948       136  OYPE      H11Y           -2.2338122033       22.5080860254       -6.2825533049  MEMB      136             0.0000000000
     16949       136  OYPE      C312           -3.6469708051       23.3475716538       -4.7697995937  MEMB      136             0.0000000000
     16950       136  OYPE      H12X           -3.2949867699       23.3273298949       -3.7412109906  MEMB      136             0.0000000000
     16951       136  OYPE      H12Y           -4.3201268763       22.4447760487       -4.9196608291  MEMB      136             0.0000000000
     16952       136  OYPE      C313           -4.4539780544       24.5397569066       -4.7394139598  MEMB      136             0.0000000000
     16953       136  OYPE      H13X           -4.2436327033       25.4661175139       -5.1399770093  MEMB      136             0.0000000000
     16954       136  OYPE      H13Y           -4.6700625129       23.8581640805       -5.6384494312  MEMB      136             0.0000000000
     16955       136  OYPE      C314           -5.3938982839       25.1879097613       -3.6181513753  MEMB      136             0.0000000000
     16956       136  OYPE      H14X           -5.0657080560       25.1903403152       -2.5904285084  MEMB      136             0.0000000000
     16957       136  OYPE      H14Y           -5.7555702799       24.3651998066       -3.3400959399  MEMB      136             0.0000000000
     16958       136  OYPE      C315           -6.8953368190       25.6937499097       -3.6447039871  MEMB      136             0.0000000000
     16959       136  OYPE      H15X           -7.8041544771       25.1623163259       -4.1313832624  MEMB      136             0.0000000000
     16960       136  OYPE      H15Y           -6.8642429989       26.7031385926       -4.0182108376  MEMB      136             0.0000000000
     16961       136  OYPE      C316           -7.6257215171       25.7318014553       -2.4336700407  MEMB      136             0.0000000000
     16962       136  OYPE      H16X           -8.2228554607       24.8349501385       -2.2259568440  MEMB      136             0.0000000000
     16963       136  OYPE      H16Y           -8.4043445292       26.2484756454       -2.7681469722  MEMB      136             0.0000000000
     16964       136  OYPE      C317           -7.4035569181       26.9061428095       -1.6483214208  MEMB      136             0.0000000000
     16965       136  OYPE      H17X           -7.2042716039       27.7741811711       -2.3041932369  MEMB      136             0.0000000000
     16966       136  OYPE      H17Y           -6.5163528168       26.5252228817       -1.0980976182  MEMB      136             0.0000000000
     16967       136  OYPE      C318           -8.6318439438       27.3327288000       -0.9019564086  MEMB      136             0.0000000000
     16968       136  OYPE      H18X           -9.3243654390       26.6340350518       -0.4220200716  MEMB      136             0.0000000000
     16969       136  OYPE      H18Y           -8.0852826863       27.5398937362       -0.0526150363  MEMB      136             0.0000000000
     16970       136  OYPE      H18Z           -9.3399355905       28.1134779833       -1.1290892548  MEMB      136             0.0000000000
     16971       137  PMPE      N             -10.5159861086      -22.9995119563      -21.2349291751  MEMB      137             0.0000000000
     16972       137  PMPE      HN1           -11.4685409454      -22.8396882334      -20.8353999947  MEMB      137             0.0000000000
     16973       137  PMPE      HN2            -9.9146438773      -22.2003168564      -20.9321326637  MEMB      137             0.0000000000
     16974       137  PMPE      HN3           -10.5814062458      -23.0185897939      -22.2754334119  MEMB      137             0.0000000000
     16975       137  PMPE      C12            -9.9457332546      -24.3162756881      -20.7600570207  MEMB      137             0.0000000000
     16976       137  PMPE      H12A           -9.3445484558      -24.7476690780      -21.5866075274  MEMB      137             0.0000000000
     16977       137  PMPE      H12B          -10.8064647110      -25.0011100666      -20.6059215378  MEMB      137             0.0000000000
     16978       137  PMPE      C11            -9.0065704909      -24.1225105982      -19.5505728719  MEMB      137             0.0000000000
     16979       137  PMPE      H11A           -9.5498067027      -23.7745042896      -18.6334184903  MEMB      137             0.0000000000
     16980       137  PMPE      H11B           -8.2692406676      -23.3244575786      -19.7811607174  MEMB      137             0.0000000000
     16981       137  PMPE      P              -8.5264841850      -26.2224184887      -18.0988146878  MEMB      137             0.0000000000
     16982       137  PMPE      O13            -7.4442508862      -27.2302712451      -17.9758587281  MEMB      137             0.0000000000
     16983       137  PMPE      O14            -9.9124253536      -26.6860909316      -18.3013262006  MEMB      137             0.0000000000
     16984       137  PMPE      O11            -8.4663925914      -25.1841273416      -16.8948058187  MEMB      137             0.0000000000
     16985       137  PMPE      O12            -8.2252853334      -25.2970617573      -19.3437488780  MEMB      137             0.0000000000
     16986       137  PMPE      C1             -7.2748256011      -25.0462722520      -16.1139550872  MEMB      137             0.0000000000
     16987       137  PMPE      HA             -7.3125624297      -24.0597227911      -15.6073547998  MEMB      137             0.0000000000
     16988       137  PMPE      HB             -6.3638341788      -25.0329593899      -16.7564805548  MEMB      137             0.0000000000
     16989       137  PMPE      C2             -7.1872430474      -26.0743461759      -14.9417605218  MEMB      137             0.0000000000
     16990       137  PMPE      HS             -6.8784772595      -27.0596901172      -15.3713878262  MEMB      137             0.0000000000
     16991       137  PMPE      O21            -8.4884833600      -26.1743120828      -14.3309738480  MEMB      137             0.0000000000
     16992       137  PMPE      C21            -8.6519997910      -27.2208194051      -13.5629195105  MEMB      137             0.0000000000
     16993       137  PMPE      O22            -7.8334675587      -28.1020815817      -13.3625643943  MEMB      137             0.0000000000
     16994       137  PMPE      C22           -10.0242262023      -27.1177750342      -12.8886483134  MEMB      137             0.0000000000
     16995       137  PMPE      H2R           -10.8129876768      -27.1699924988      -13.6728944357  MEMB      137             0.0000000000
     16996       137  PMPE      H2S           -10.1135062500      -26.1264558437      -12.4019230147  MEMB      137             0.0000000000
     16997       137  PMPE      C3             -6.1017727164      -25.6682176201      -13.8871142926  MEMB      137             0.0000000000
     16998       137  PMPE      HX             -5.2561371808      -25.2380913539      -14.4677060274  MEMB      137             0.0000000000
     16999       137  PMPE      HY             -5.7414530917      -26.5845997960      -13.3670044042  MEMB      137             0.0000000000
     17000       137  PMPE      O31            -6.5569209885      -24.6539247647      -12.9706908011  MEMB      137             0.0000000000
     17001       137  PMPE      C31            -6.7191961203      -25.0043984927      -11.6975506015  MEMB      137             0.0000000000
     17002       137  PMPE      O32            -6.4600362012      -26.0784761437      -11.1964491534  MEMB      137             0.0000000000
     17003       137  PMPE      C32            -7.2916355576      -23.8002880028      -10.9582540923  MEMB      137             0.0000000000
     17004       137  PMPE      H2X            -8.0010024727      -23.3354219469      -11.6735230319  MEMB      137             0.0000000000
     17005       137  PMPE      H2Y            -6.4539292849      -23.0979795131      -10.7624358197  MEMB      137             0.0000000000
     17006       137  PMPE      C23           -10.1139839327      -28.3121823754      -11.9111660009  MEMB      137             0.0000000000
     17007       137  PMPE      H3R            -9.3737108660      -28.3122457724      -11.0973219330  MEMB      137             0.0000000000
     17008       137  PMPE      H3S           -10.0121945854      -29.2190101512      -12.5645514327  MEMB      137             0.0000000000
     17009       137  PMPE      C24           -11.4065567814      -28.4863137057      -11.1630996727  MEMB      137             0.0000000000
     17010       137  PMPE      H4R           -11.9589464538      -28.5984686522      -12.0592169107  MEMB      137             0.0000000000
     17011       137  PMPE      H4S           -11.7028787754      -27.6437229676      -10.5076679424  MEMB      137             0.0000000000
     17012       137  PMPE      C25           -11.7869599410      -29.8792007383      -10.7161017814  MEMB      137             0.0000000000
     17013       137  PMPE      H5R           -11.2909894825      -30.5698703160      -11.4263113293  MEMB      137             0.0000000000
     17014       137  PMPE      H5S           -12.8911800449      -30.0730318005      -10.8306801285  MEMB      137             0.0000000000
     17015       137  PMPE      C26           -11.2734708406      -30.0079673605       -9.3129798637  MEMB      137             0.0000000000
     17016       137  PMPE      H6R           -10.2669251879      -29.5756489367       -9.2141392188  MEMB      137             0.0000000000
     17017       137  PMPE      H6S           -11.3304241060      -31.0683858205       -8.9722822861  MEMB      137             0.0000000000
     17018       137  PMPE      C27           -12.1356671029      -29.2396410087       -8.3813643140  MEMB      137             0.0000000000
     17019       137  PMPE      H7R           -12.9189722931      -30.0210685394       -8.5317876080  MEMB      137             0.0000000000
     17020       137  PMPE      H7S           -12.7121059757      -28.3471752379       -8.7018925055  MEMB      137             0.0000000000
     17021       137  PMPE      C28           -11.6003297244      -28.9651940657       -6.9314336852  MEMB      137             0.0000000000
     17022       137  PMPE      H8R           -11.0531413543      -29.8042455528       -6.4698632434  MEMB      137             0.0000000000
     17023       137  PMPE      H8S           -12.3801055844      -28.7074982111       -6.1734018833  MEMB      137             0.0000000000
     17024       137  PMPE      C29           -10.9682218631      -27.6208060751       -6.9965683500  MEMB      137             0.0000000000
     17025       137  PMPE      H9R           -11.5948338118      -26.8167303980       -7.4227870600  MEMB      137             0.0000000000
     17026       137  PMPE      C217           -9.4778257096      -27.6860455877       -7.2420509816  MEMB      137             0.0000000000
     17027       137  PMPE      H17R           -9.2432969690      -27.0575555010       -8.0832550355  MEMB      137             0.0000000000
     17028       137  PMPE      H17S           -9.0387803920      -28.6592051915       -7.0575435451  MEMB      137             0.0000000000
     17029       137  PMPE      C210          -10.0441861901      -27.0529020279       -5.9705643648  MEMB      137             0.0000000000
     17030       137  PMPE      H10R          -10.1241483451      -25.9506579170       -5.9529801570  MEMB      137             0.0000000000
     17031       137  PMPE      C211           -9.7816249277      -27.7899931712       -4.6521574814  MEMB      137             0.0000000000
     17032       137  PMPE      H11R           -9.0784695496      -27.1497172898       -4.0713396992  MEMB      137             0.0000000000
     17033       137  PMPE      H11S           -9.3082377991      -28.7708405274       -4.8581083803  MEMB      137             0.0000000000
     17034       137  PMPE      C212          -10.9851468815      -28.0769916683       -3.7364896468  MEMB      137             0.0000000000
     17035       137  PMPE      H12R          -10.5986437738      -28.5249118743       -2.7910768716  MEMB      137             0.0000000000
     17036       137  PMPE      H12S          -11.6667487180      -28.8363872496       -4.1743483459  MEMB      137             0.0000000000
     17037       137  PMPE      C213          -11.7325302329      -26.8018048662       -3.3658380793  MEMB      137             0.0000000000
     17038       137  PMPE      H13R          -11.9006154866      -26.1929827163       -4.2817005294  MEMB      137             0.0000000000
     17039       137  PMPE      H13S          -11.0757712589      -26.2000961029       -2.6970936785  MEMB      137             0.0000000000
     17040       137  PMPE      C214          -13.0943246921      -27.0817065555       -2.7205982822  MEMB      137             0.0000000000
     17041       137  PMPE      H14R          -13.5022941498      -28.0524561307       -3.0687455828  MEMB      137             0.0000000000
     17042       137  PMPE      H14S          -13.7836422449      -26.2820216847       -3.0653441001  MEMB      137             0.0000000000
     17043       137  PMPE      C215          -13.0330533706      -27.0848511161       -1.1932926145  MEMB      137             0.0000000000
     17044       137  PMPE      H15R          -12.6157170293      -26.1016349974       -0.8830043140  MEMB      137             0.0000000000
     17045       137  PMPE      H15S          -12.3003842803      -27.8608901344       -0.8824118948  MEMB      137             0.0000000000
     17046       137  PMPE      C216          -14.3773035955      -27.2849512313       -0.4790755302  MEMB      137             0.0000000000
     17047       137  PMPE      H16R          -14.2079184285      -27.3464988370        0.6160555457  MEMB      137             0.0000000000
     17048       137  PMPE      H16S          -15.0375886134      -26.4130445335       -0.6700007570  MEMB      137             0.0000000000
     17049       137  PMPE      H16T          -14.9126294281      -28.2090570386       -0.7864560489  MEMB      137             0.0000000000
     17050       137  PMPE      C33            -8.0461997056      -24.1944444106       -9.6613408920  MEMB      137             0.0000000000
     17051       137  PMPE      H3X            -7.3022246215      -24.4703980693       -8.8797268080  MEMB      137             0.0000000000
     17052       137  PMPE      H3Y            -8.6878296638      -25.0824214218       -9.8694990055  MEMB      137             0.0000000000
     17053       137  PMPE      C34            -8.9625535384      -23.1046475689       -9.0739828216  MEMB      137             0.0000000000
     17054       137  PMPE      H4X            -9.7830541932      -22.8455809375       -9.7819294290  MEMB      137             0.0000000000
     17055       137  PMPE      H4Y            -8.3553100162      -22.1947689603       -8.8808782105  MEMB      137             0.0000000000
     17056       137  PMPE      C35            -9.6294949245      -23.5516500434       -7.7643587876  MEMB      137             0.0000000000
     17057       137  PMPE      H5X            -8.8585925973      -23.7909135133       -6.9991990029  MEMB      137             0.0000000000
     17058       137  PMPE      H5Y           -10.1801442766      -24.4941122580       -7.9859188150  MEMB      137             0.0000000000
     17059       137  PMPE      C36           -10.6915710450      -22.5684991042       -7.2355043658  MEMB      137             0.0000000000
     17060       137  PMPE      H6X           -11.2657662914      -23.0648349511       -6.4247739183  MEMB      137             0.0000000000
     17061       137  PMPE      H6Y           -11.4112763824      -22.3735014550       -8.0639971964  MEMB      137             0.0000000000
     17062       137  PMPE      C37           -10.1861045494      -21.2000566839       -6.7474473884  MEMB      137             0.0000000000
     17063       137  PMPE      H7X           -11.0522551959      -20.5010907865       -6.7897124563  MEMB      137             0.0000000000
     17064       137  PMPE      H7Y            -9.4307173018      -20.8084202737       -7.4671701251  MEMB      137             0.0000000000
     17065       137  PMPE      C38            -9.4958272634      -21.2011474185       -5.3662902829  MEMB      137             0.0000000000
     17066       137  PMPE      H8X            -8.9975519813      -20.2120475070       -5.2434157117  MEMB      137             0.0000000000
     17067       137  PMPE      H8Y            -8.7120013893      -21.9896977092       -5.3871821313  MEMB      137             0.0000000000
     17068       137  PMPE      C39           -10.3780021951      -21.3953667862       -4.1166922794  MEMB      137             0.0000000000
     17069       137  PMPE      H9X           -10.8477561149      -22.4002678041       -4.1639821453  MEMB      137             0.0000000000
     17070       137  PMPE      H9Y           -11.1772768071      -20.6203878778       -4.1249610087  MEMB      137             0.0000000000
     17071       137  PMPE      C310           -9.5967998831      -21.2363253604       -2.7931874767  MEMB      137             0.0000000000
     17072       137  PMPE      H10X          -10.2393512970      -21.3273929640       -1.8920365756  MEMB      137             0.0000000000
     17073       137  PMPE      H10Y           -9.1949669105      -20.2231865877       -2.7575865214  MEMB      137             0.0000000000
     17074       137  PMPE      C311           -8.3965655637      -22.1607808875       -2.6430776480  MEMB      137             0.0000000000
     17075       137  PMPE      H11X           -7.6416091829      -21.9744675624       -3.4397146501  MEMB      137             0.0000000000
     17076       137  PMPE      H11Y           -8.7568237283      -23.2023910080       -2.7882006612  MEMB      137             0.0000000000
     17077       137  PMPE      C312           -7.6493330315      -21.9574188964       -1.3214042775  MEMB      137             0.0000000000
     17078       137  PMPE      H12X           -8.3012720421      -21.8512755322       -0.4235032261  MEMB      137             0.0000000000
     17079       137  PMPE      H12Y           -7.0418410171      -21.0282852177       -1.3892618256  MEMB      137             0.0000000000
     17080       137  PMPE      C313           -6.7033440394      -23.1180859865       -1.1388089940  MEMB      137             0.0000000000
     17081       137  PMPE      H13X           -5.8624765873      -22.9053853669       -0.5198085884  MEMB      137             0.0000000000
     17082       137  PMPE      H13Y           -6.2389465101      -23.4301274117       -2.0935374028  MEMB      137             0.0000000000
     17083       137  PMPE      C314           -7.3290916885      -24.2348636998       -0.3849476599  MEMB      137             0.0000000000
     17084       137  PMPE      H14X           -8.2103757884      -24.6027961955       -0.9521430931  MEMB      137             0.0000000000
     17085       137  PMPE      H14Y           -7.5492931423      -24.1007038211        0.7032912162  MEMB      137             0.0000000000
     17086       137  PMPE      C315           -6.3805345395      -25.3179439568       -0.2048799797  MEMB      137             0.0000000000
     17087       137  PMPE      H15X           -5.6024887964      -25.0101334375        0.5239798487  MEMB      137             0.0000000000
     17088       137  PMPE      H15Y           -5.6571269053      -25.3798351606       -1.0607553223  MEMB      137             0.0000000000
     17089       137  PMPE      C316           -7.4376920928      -26.4383509633        0.1079646665  MEMB      137             0.0000000000
     17090       137  PMPE      H16X           -7.8048811161      -26.6028317493        1.1153644587  MEMB      137             0.0000000000
     17091       137  PMPE      H16Y           -7.1075713413      -27.4110537471        0.3416595395  MEMB      137             0.0000000000
     17092       137  PMPE      H16Z           -7.9789745283      -26.8455143856       -0.7677048350  MEMB      137             0.0000000000
     17093       138  POPE      N               3.7948530606       23.8936831536      -18.8311904690  MEMB      138             0.0000000000
     17094       138  POPE      HN1             2.9150042468       23.3473895073      -18.9270464859  MEMB      138             0.0000000000
     17095       138  POPE      HN2             4.6115246297       23.2529101451      -18.7474996877  MEMB      138             0.0000000000
     17096       138  POPE      HN3             3.7472162243       24.5101842574      -17.9913185955  MEMB      138             0.0000000000
     17097       138  POPE      C12             3.9988051739       24.7658044066      -20.0451881880  MEMB      138             0.0000000000
     17098       138  POPE      H12A            3.0061471273       25.0384685869      -20.4599431974  MEMB      138             0.0000000000
     17099       138  POPE      H12B            4.5398083847       24.1324227718      -20.7680641065  MEMB      138             0.0000000000
     17100       138  POPE      C11             4.7396390284       26.0709394340      -19.7160267286  MEMB      138             0.0000000000
     17101       138  POPE      H11A            4.9665530070       26.6077364293      -20.6733849576  MEMB      138             0.0000000000
     17102       138  POPE      H11B            5.7006727872       25.8500316614      -19.2015393303  MEMB      138             0.0000000000
     17103       138  POPE      P               4.0833629017       28.4366009106      -18.7302235353  MEMB      138             0.0000000000
     17104       138  POPE      O13             2.8612549939       28.9045329909      -18.0640365628  MEMB      138             0.0000000000
     17105       138  POPE      O14             4.4656355324       29.0559341631      -20.0212334051  MEMB      138             0.0000000000
     17106       138  POPE      O11             5.3261420685       28.4767407496      -17.7458419406  MEMB      138             0.0000000000
     17107       138  POPE      O12             3.9001641923       26.8526143470      -18.8830852699  MEMB      138             0.0000000000
     17108       138  POPE      C1              5.2833043237       27.6426372990      -16.5865268522  MEMB      138             0.0000000000
     17109       138  POPE      HA              6.0823753969       26.8795416675      -16.6812258583  MEMB      138             0.0000000000
     17110       138  POPE      HB              4.3096125975       27.1017750106      -16.4584724764  MEMB      138             0.0000000000
     17111       138  POPE      C2              5.4826519057       28.4670875668      -15.2888272406  MEMB      138             0.0000000000
     17112       138  POPE      HS              5.4115033316       27.7159961773      -14.4643148553  MEMB      138             0.0000000000
     17113       138  POPE      O21             4.4611487440       29.4929827386      -15.2263338876  MEMB      138             0.0000000000
     17114       138  POPE      C21             3.9319001064       29.7354712545      -14.0425813165  MEMB      138             0.0000000000
     17115       138  POPE      O22             4.2779669754       29.2102209120      -12.9966802810  MEMB      138             0.0000000000
     17116       138  POPE      C22             2.7937266259       30.7628473817      -14.1459838958  MEMB      138             0.0000000000
     17117       138  POPE      H2R             2.0950851368       30.5093014239      -14.9652894059  MEMB      138             0.0000000000
     17118       138  POPE      H2S             3.2108809208       31.7772494293      -14.3385789346  MEMB      138             0.0000000000
     17119       138  POPE      C3              6.8788572703       29.1427122844      -15.2643703411  MEMB      138             0.0000000000
     17120       138  POPE      HX              6.8357081905       29.9321770923      -16.0502827911  MEMB      138             0.0000000000
     17121       138  POPE      HY              7.7057132231       28.4516837984      -15.5326373978  MEMB      138             0.0000000000
     17122       138  POPE      O31             7.1508593934       29.7614099255      -14.0057853919  MEMB      138             0.0000000000
     17123       138  POPE      C31             7.5672856491       28.9484239089      -13.0342076137  MEMB      138             0.0000000000
     17124       138  POPE      O32             7.7667269911       27.7574542193      -13.1187693908  MEMB      138             0.0000000000
     17125       138  POPE      C32             7.8171985296       29.7942937735      -11.8439792407  MEMB      138             0.0000000000
     17126       138  POPE      H2X             8.3330725131       29.2880943972      -11.0006910605  MEMB      138             0.0000000000
     17127       138  POPE      H2Y             6.8403371993       30.2038520427      -11.5049292867  MEMB      138             0.0000000000
     17128       138  POPE      C23             2.0053562748       30.8133856320      -12.8218493094  MEMB      138             0.0000000000
     17129       138  POPE      H3R             1.4815327679       31.7955495698      -12.7981356499  MEMB      138             0.0000000000
     17130       138  POPE      H3S             2.7225507374       30.7444458147      -11.9835698871  MEMB      138             0.0000000000
     17131       138  POPE      C24             1.0183114502       29.6666646281      -12.5895743917  MEMB      138             0.0000000000
     17132       138  POPE      H4R             1.5757315507       28.7205300308      -12.4149799490  MEMB      138             0.0000000000
     17133       138  POPE      H4S             0.3553629567       29.5729790957      -13.4766726638  MEMB      138             0.0000000000
     17134       138  POPE      C25             0.1219594065       29.8653462895      -11.3800343192  MEMB      138             0.0000000000
     17135       138  POPE      H5R            -0.7411837911       29.1674781797      -11.4042746422  MEMB      138             0.0000000000
     17136       138  POPE      H5S            -0.3194836556       30.8745168265      -11.4445380442  MEMB      138             0.0000000000
     17137       138  POPE      C26             0.8048705392       29.7229451251      -10.0290518129  MEMB      138             0.0000000000
     17138       138  POPE      H6R             1.6791587607       30.4228859965       -9.9907741065  MEMB      138             0.0000000000
     17139       138  POPE      H6S             1.2692838302       28.7403673805       -9.8489488519  MEMB      138             0.0000000000
     17140       138  POPE      C27            -0.3450734126       29.9825685262       -9.0347327641  MEMB      138             0.0000000000
     17141       138  POPE      H7R            -1.1743100045       29.2785045520       -9.1329325289  MEMB      138             0.0000000000
     17142       138  POPE      H7S            -0.8315896624       30.9763851649       -9.1076165592  MEMB      138             0.0000000000
     17143       138  POPE      C28            -0.0687594090       29.7060839410       -7.6373148887  MEMB      138             0.0000000000
     17144       138  POPE      H8R            -0.8495524042       30.2165636520       -6.9737219916  MEMB      138             0.0000000000
     17145       138  POPE      H8S             0.7079652084       30.1200420948       -7.0295705457  MEMB      138             0.0000000000
     17146       138  POPE      C29             0.7265608598       28.5295906799       -7.4413028211  MEMB      138             0.0000000000
     17147       138  POPE      H91            -0.1645400021       28.0152162428       -7.1180700149  MEMB      138             0.0000000000
     17148       138  POPE      C210            2.0684759755       28.2714532012       -7.2444025864  MEMB      138             0.0000000000
     17149       138  POPE      H101            2.2233057567       27.6622165573       -6.3336673942  MEMB      138             0.0000000000
     17150       138  POPE      C211            3.1969619835       29.2921789240       -7.2292036308  MEMB      138             0.0000000000
     17151       138  POPE      H11R            2.8570563933       30.3654927286       -7.2894887364  MEMB      138             0.0000000000
     17152       138  POPE      H11S            3.7555210127       29.0819688009       -8.1524679926  MEMB      138             0.0000000000
     17153       138  POPE      C212            4.2765633000       29.3402188517       -6.1080931352  MEMB      138             0.0000000000
     17154       138  POPE      H12R            3.9388172961       29.6591466015       -5.1128452314  MEMB      138             0.0000000000
     17155       138  POPE      H12S            4.7992253325       30.1979540758       -6.5282749787  MEMB      138             0.0000000000
     17156       138  POPE      C213            5.2295047536       28.1449814130       -5.9453927748  MEMB      138             0.0000000000
     17157       138  POPE      H13R            5.8963427964       28.1360107441       -6.8274804038  MEMB      138             0.0000000000
     17158       138  POPE      H13S            4.5738477388       27.2559172755       -5.9288658254  MEMB      138             0.0000000000
     17159       138  POPE      C214            6.1123284941       27.9510570788       -4.6835795707  MEMB      138             0.0000000000
     17160       138  POPE      H14R            6.9188002841       28.7125387743       -4.5815237471  MEMB      138             0.0000000000
     17161       138  POPE      H14S            6.7064468722       27.0480362683       -4.7041595772  MEMB      138             0.0000000000
     17162       138  POPE      C215            5.3171884390       27.7728701951       -3.4022520320  MEMB      138             0.0000000000
     17163       138  POPE      H15R            4.2211914928       27.5943813431       -3.4503550091  MEMB      138             0.0000000000
     17164       138  POPE      H15S            5.6195468689       28.7300424033       -3.0823960649  MEMB      138             0.0000000000
     17165       138  POPE      C216            5.8794395447       27.4269700327       -2.0342653832  MEMB      138             0.0000000000
     17166       138  POPE      H16R            6.1696854053       26.4272437186       -2.3513849222  MEMB      138             0.0000000000
     17167       138  POPE      H16S            5.0539081429       27.4563370261       -1.2751471895  MEMB      138             0.0000000000
     17168       138  POPE      C217            7.0778231471       28.2475310187       -1.4825140133  MEMB      138             0.0000000000
     17169       138  POPE      H17R            7.7202724397       28.6554573930       -2.2913190707  MEMB      138             0.0000000000
     17170       138  POPE      H17S            7.6340856326       27.4920118068       -0.8991284625  MEMB      138             0.0000000000
     17171       138  POPE      C218            6.7643020814       29.3775075710       -0.5040550614  MEMB      138             0.0000000000
     17172       138  POPE      H18R            7.5756816119       29.7057522179        0.1510136277  MEMB      138             0.0000000000
     17173       138  POPE      H18S            5.8903124182       29.0896620308        0.1095120184  MEMB      138             0.0000000000
     17174       138  POPE      H18T            6.4785080362       30.2712808112       -1.0636850096  MEMB      138             0.0000000000
     17175       138  POPE      C33             8.6999282467       30.9279164275      -12.2653947896  MEMB      138             0.0000000000
     17176       138  POPE      H3X             7.9259807321       31.7357686817      -12.4581461426  MEMB      138             0.0000000000
     17177       138  POPE      H3Y             9.3233696393       30.8917504709      -13.1734858181  MEMB      138             0.0000000000
     17178       138  POPE      C34             9.6195180886       31.1295567441      -11.0723785809  MEMB      138             0.0000000000
     17179       138  POPE      H4X            10.4604235561       31.8456703857      -11.3276452168  MEMB      138             0.0000000000
     17180       138  POPE      H4Y            10.0965477649       30.3446801271      -10.4836307582  MEMB      138             0.0000000000
     17181       138  POPE      C35             8.7944685569       31.7478765544       -9.9658084312  MEMB      138             0.0000000000
     17182       138  POPE      H5X             8.5367690491       32.3540182497      -10.8144201731  MEMB      138             0.0000000000
     17183       138  POPE      H5Y             9.6533336326       32.1694494908       -9.4585924352  MEMB      138             0.0000000000
     17184       138  POPE      C36             7.3763361196       31.6225174180       -9.1632970942  MEMB      138             0.0000000000
     17185       138  POPE      H6X             7.7417219341       30.7225878705       -8.6881899822  MEMB      138             0.0000000000
     17186       138  POPE      H6Y             6.4490297373       31.5697775312       -9.7273026075  MEMB      138             0.0000000000
     17187       138  POPE      C37             6.7137700034       32.7169252955       -8.1659964827  MEMB      138             0.0000000000
     17188       138  POPE      H7X             6.4539135783       33.7434523792       -8.5172278455  MEMB      138             0.0000000000
     17189       138  POPE      H7Y             7.2369502579       32.8218703147       -7.1986641179  MEMB      138             0.0000000000
     17190       138  POPE      C38             5.6841477073       32.6737621700       -7.2252788394  MEMB      138             0.0000000000
     17191       138  POPE      H8X             5.5876262230       31.7498443465       -6.7741585140  MEMB      138             0.0000000000
     17192       138  POPE      H8Y             4.8173303387       32.9040808801       -7.7479193337  MEMB      138             0.0000000000
     17193       138  POPE      C39             5.7304401848       33.7624340104       -6.2087233478  MEMB      138             0.0000000000
     17194       138  POPE      H9X             6.0202948609       34.7093288638       -6.6948671035  MEMB      138             0.0000000000
     17195       138  POPE      H9Y             6.4751530899       33.8674047541       -5.4303829791  MEMB      138             0.0000000000
     17196       138  POPE      C310            4.3616314257       33.5416724243       -5.6860007569  MEMB      138             0.0000000000
     17197       138  POPE      H10X            3.9239874682       32.6688561662       -6.2223891571  MEMB      138             0.0000000000
     17198       138  POPE      H10Y            3.5895228288       34.3038044328       -5.7319252244  MEMB      138             0.0000000000
     17199       138  POPE      C311            4.1504230855       33.3351614058       -4.3509088080  MEMB      138             0.0000000000
     17200       138  POPE      H11X            4.6847430176       33.7598700521       -3.5784643706  MEMB      138             0.0000000000
     17201       138  POPE      H11Y            4.5508797138       32.4243227811       -4.6100185020  MEMB      138             0.0000000000
     17202       138  POPE      C312            2.8063911077       33.2624016150       -3.9910290472  MEMB      138             0.0000000000
     17203       138  POPE      H12X            2.7740234021       32.2806869260       -4.4933256679  MEMB      138             0.0000000000
     17204       138  POPE      H12Y            2.1079437484       34.0819047224       -4.2187870186  MEMB      138             0.0000000000
     17205       138  POPE      C313            2.5324669545       32.7635347451       -2.7487411669  MEMB      138             0.0000000000
     17206       138  POPE      H13X            3.1940810563       33.2349865958       -2.0086082131  MEMB      138             0.0000000000
     17207       138  POPE      H13Y            2.5451735965       31.6333125942       -2.8253915216  MEMB      138             0.0000000000
     17208       138  POPE      C314            1.2058496230       33.0149915745       -2.5675228016  MEMB      138             0.0000000000
     17209       138  POPE      H14X            1.5993513852       32.6048665445       -1.6068656904  MEMB      138             0.0000000000
     17210       138  POPE      H14Y            0.4149043842       32.4370950819       -3.0686377605  MEMB      138             0.0000000000
     17211       138  POPE      C315            0.5410920668       33.6267910881       -1.5694205849  MEMB      138             0.0000000000
     17212       138  POPE      H15X           -0.2355458154       32.9716830708       -1.0251461323  MEMB      138             0.0000000000
     17213       138  POPE      H15Y            0.3472104979       34.2221556326       -2.4952214210  MEMB      138             0.0000000000
     17214       138  POPE      C316            1.2077482142       34.3023785381       -0.6478359645  MEMB      138             0.0000000000
     17215       138  POPE      H16X            1.2323559337       33.4898847738        0.1289591164  MEMB      138             0.0000000000
     17216       138  POPE      H16Y            0.6524369426       35.1073588580       -0.2318780044  MEMB      138             0.0000000000
     17217       138  POPE      H16Z            2.2144338075       34.5589607606       -1.0357363076  MEMB      138             0.0000000000
     17218       139  PMPE      N             -10.2984950131       25.2316494917      -19.9805702233  MEMB      139             0.0000000000
     17219       139  PMPE      HN1            -9.6782436086       25.7780360085      -19.3361950398  MEMB      139             0.0000000000
     17220       139  PMPE      HN2           -10.2250022706       24.2234437988      -19.7095807420  MEMB      139             0.0000000000
     17221       139  PMPE      HN3            -9.9461322610       25.3600050573      -20.9508107139  MEMB      139             0.0000000000
     17222       139  PMPE      C12           -11.7229178104       25.6961917643      -19.9004303207  MEMB      139             0.0000000000
     17223       139  PMPE      H12A          -12.2588768550       25.4069036426      -20.8255288969  MEMB      139             0.0000000000
     17224       139  PMPE      H12B          -11.7343790163       26.8055223347      -19.8355359820  MEMB      139             0.0000000000
     17225       139  PMPE      C11           -12.4062521326       25.0533534442      -18.7043986790  MEMB      139             0.0000000000
     17226       139  PMPE      H11A          -11.8371862510       25.2889711354      -17.7773478411  MEMB      139             0.0000000000
     17227       139  PMPE      H11B          -12.4138165392       23.9331817281      -18.7919119950  MEMB      139             0.0000000000
     17228       139  PMPE      P             -14.9936296882       24.7570442333      -18.7164155880  MEMB      139             0.0000000000
     17229       139  PMPE      O13           -14.7229213413       23.5077625276      -17.9779655448  MEMB      139             0.0000000000
     17230       139  PMPE      O14           -15.4045340148       24.6018558288      -20.1245234534  MEMB      139             0.0000000000
     17231       139  PMPE      O11           -16.0189725169       25.6183978928      -17.9282081909  MEMB      139             0.0000000000
     17232       139  PMPE      O12           -13.7008776982       25.6431583937      -18.6209957560  MEMB      139             0.0000000000
     17233       139  PMPE      C1            -16.5911808149       26.8182547610      -18.4349080084  MEMB      139             0.0000000000
     17234       139  PMPE      HA            -17.1512390441       26.6267018897      -19.3756407559  MEMB      139             0.0000000000
     17235       139  PMPE      HB            -15.8059572738       27.5832491861      -18.6463069024  MEMB      139             0.0000000000
     17236       139  PMPE      C2            -17.6372921041       27.3487628736      -17.4149731125  MEMB      139             0.0000000000
     17237       139  PMPE      HS            -17.9581293277       28.3684059679      -17.7490864794  MEMB      139             0.0000000000
     17238       139  PMPE      O21           -17.1094140330       27.3501743962      -16.0656731611  MEMB      139             0.0000000000
     17239       139  PMPE      C21           -16.2039275187       28.2798063198      -15.9133973049  MEMB      139             0.0000000000
     17240       139  PMPE      O22           -16.1111129263       29.2205769753      -16.6836127606  MEMB      139             0.0000000000
     17241       139  PMPE      C22           -15.4906214659       27.9823682512      -14.5480864826  MEMB      139             0.0000000000
     17242       139  PMPE      H2R           -15.4041649597       26.8778402820      -14.4764214383  MEMB      139             0.0000000000
     17243       139  PMPE      H2S           -16.1967806685       28.3340844737      -13.7759805913  MEMB      139             0.0000000000
     17244       139  PMPE      C3            -18.8993372082       26.4474948289      -17.4340178976  MEMB      139             0.0000000000
     17245       139  PMPE      HX            -19.2116697918       26.3718996872      -18.4821296105  MEMB      139             0.0000000000
     17246       139  PMPE      HY            -19.7430735025       26.9165656629      -16.8828539495  MEMB      139             0.0000000000
     17247       139  PMPE      O31           -18.6212424056       25.0995295248      -17.0349821714  MEMB      139             0.0000000000
     17248       139  PMPE      C31           -18.6681607813       24.8247246035      -15.7531734125  MEMB      139             0.0000000000
     17249       139  PMPE      O32           -18.9744254195       25.5970386903      -14.8573508664  MEMB      139             0.0000000000
     17250       139  PMPE      C32           -18.1746691482       23.4016279238      -15.5615070368  MEMB      139             0.0000000000
     17251       139  PMPE      H2X           -17.0687488926       23.3811861313      -15.5505170910  MEMB      139             0.0000000000
     17252       139  PMPE      H2Y           -18.5246240857       22.8531533906      -16.4625912021  MEMB      139             0.0000000000
     17253       139  PMPE      C23           -14.1073688659       28.6216318178      -14.2613952113  MEMB      139             0.0000000000
     17254       139  PMPE      H3R           -14.2405973495       29.7278286458      -14.2932104065  MEMB      139             0.0000000000
     17255       139  PMPE      H3S           -13.3884142154       28.2902291450      -15.0526785187  MEMB      139             0.0000000000
     17256       139  PMPE      C24           -13.4092457152       28.3620677474      -12.9351865120  MEMB      139             0.0000000000
     17257       139  PMPE      H4R           -13.9841001516       28.8646313538      -12.1389255087  MEMB      139             0.0000000000
     17258       139  PMPE      H4S           -12.4072254813       28.8516814449      -12.9148683322  MEMB      139             0.0000000000
     17259       139  PMPE      C25           -13.1613087563       26.8763127723      -12.7455261579  MEMB      139             0.0000000000
     17260       139  PMPE      H5R           -12.6500381561       26.5129296896      -13.6686961775  MEMB      139             0.0000000000
     17261       139  PMPE      H5S           -14.1317100112       26.3476371523      -12.6379241701  MEMB      139             0.0000000000
     17262       139  PMPE      C26           -12.2426238288       26.5778846735      -11.5655264515  MEMB      139             0.0000000000
     17263       139  PMPE      H6R           -11.3475449608       27.2314473333      -11.6782435228  MEMB      139             0.0000000000
     17264       139  PMPE      H6S           -11.8873232028       25.5279897043      -11.6202083741  MEMB      139             0.0000000000
     17265       139  PMPE      C27           -12.9754045473       26.7579619651      -10.2288895993  MEMB      139             0.0000000000
     17266       139  PMPE      H7R           -13.7272046738       25.9633373928      -10.1037305172  MEMB      139             0.0000000000
     17267       139  PMPE      H7S           -13.4932699246       27.7349202040      -10.2231841555  MEMB      139             0.0000000000
     17268       139  PMPE      C28           -12.1034727857       26.6971072226       -8.9966169483  MEMB      139             0.0000000000
     17269       139  PMPE      H8R           -11.5391703880       25.7356727884       -9.0083375325  MEMB      139             0.0000000000
     17270       139  PMPE      H8S           -12.6720101773       26.7818358075       -8.0521685916  MEMB      139             0.0000000000
     17271       139  PMPE      C29           -11.3144491418       27.9623912004       -9.0423515922  MEMB      139             0.0000000000
     17272       139  PMPE      H9R           -11.2580845432       28.4478094399      -10.0587376008  MEMB      139             0.0000000000
     17273       139  PMPE      C217           -9.9607831580       27.7760033876       -9.1291545686  MEMB      139             0.0000000000
     17274       139  PMPE      H17R           -9.3307421635       28.3804944080       -9.8066960020  MEMB      139             0.0000000000
     17275       139  PMPE      H17S           -9.9655818604       26.7211347248       -9.0666693208  MEMB      139             0.0000000000
     17276       139  PMPE      C210          -10.3971863901       28.3240940024       -7.8566291790  MEMB      139             0.0000000000
     17277       139  PMPE      H10R           -9.9973204918       29.3465848847       -7.7086153903  MEMB      139             0.0000000000
     17278       139  PMPE      C211          -10.2453729534       27.3018598865       -6.7158887928  MEMB      139             0.0000000000
     17279       139  PMPE      H11R           -9.2388165204       27.1005407089       -6.3037632588  MEMB      139             0.0000000000
     17280       139  PMPE      H11S          -10.5732246043       26.2889744315       -7.0113096014  MEMB      139             0.0000000000
     17281       139  PMPE      C212          -11.0312213652       27.8909508061       -5.5845152284  MEMB      139             0.0000000000
     17282       139  PMPE      H12R          -12.0311684412       28.1318504030       -5.9769333898  MEMB      139             0.0000000000
     17283       139  PMPE      H12S          -10.5405438488       28.8186669627       -5.1922481301  MEMB      139             0.0000000000
     17284       139  PMPE      C213          -11.3123929522       26.8562727375       -4.5496310948  MEMB      139             0.0000000000
     17285       139  PMPE      H13R          -11.4330061025       25.8243733862       -4.9692918217  MEMB      139             0.0000000000
     17286       139  PMPE      H13S          -12.1167058651       27.1474814933       -3.8565745288  MEMB      139             0.0000000000
     17287       139  PMPE      C214          -10.1940155948       26.6822078528       -3.6850948248  MEMB      139             0.0000000000
     17288       139  PMPE      H14R           -9.6746194936       27.6024301979       -3.2977108598  MEMB      139             0.0000000000
     17289       139  PMPE      H14S           -9.3966151516       26.3284588558       -4.3858441324  MEMB      139             0.0000000000
     17290       139  PMPE      C215          -10.6002309315       25.6947123400       -2.5323395342  MEMB      139             0.0000000000
     17291       139  PMPE      H15R          -11.2916520863       26.1581110012       -1.8216609256  MEMB      139             0.0000000000
     17292       139  PMPE      H15S           -9.8921674711       25.5784993746       -1.7414361699  MEMB      139             0.0000000000
     17293       139  PMPE      C216          -10.6745558322       24.1858700550       -2.7477521118  MEMB      139             0.0000000000
     17294       139  PMPE      H16R          -10.4254154717       23.6946716433       -1.7779422495  MEMB      139             0.0000000000
     17295       139  PMPE      H16S          -11.7070136183       23.9258428549       -2.9645258935  MEMB      139             0.0000000000
     17296       139  PMPE      H16T           -9.9585671731       23.7668793636       -3.4847816104  MEMB      139             0.0000000000
     17297       139  PMPE      C33           -18.7724394435       22.7099072281      -14.3181674153  MEMB      139             0.0000000000
     17298       139  PMPE      H3X           -18.4854983053       21.6384990593      -14.3988298389  MEMB      139             0.0000000000
     17299       139  PMPE      H3Y           -19.8833441907       22.7743442606      -14.3843686364  MEMB      139             0.0000000000
     17300       139  PMPE      C34           -18.2165654356       23.2036895965      -12.9684310045  MEMB      139             0.0000000000
     17301       139  PMPE      H4X           -18.7496637047       22.6417993294      -12.1726769073  MEMB      139             0.0000000000
     17302       139  PMPE      H4Y           -18.4850269002       24.2765752656      -12.8328085070  MEMB      139             0.0000000000
     17303       139  PMPE      C35           -16.6971418460       22.9420088735      -12.8653576853  MEMB      139             0.0000000000
     17304       139  PMPE      H5X           -16.1786034538       23.3382403637      -13.7683670200  MEMB      139             0.0000000000
     17305       139  PMPE      H5Y           -16.4980252953       21.8519092955      -12.7918518664  MEMB      139             0.0000000000
     17306       139  PMPE      C36           -15.9232725062       23.6035757913      -11.7326023371  MEMB      139             0.0000000000
     17307       139  PMPE      H6X           -15.9282595786       24.6999391264      -11.9278344936  MEMB      139             0.0000000000
     17308       139  PMPE      H6Y           -14.8607047542       23.2643972996      -11.8333038922  MEMB      139             0.0000000000
     17309       139  PMPE      C37           -16.4289030139       23.2642181322      -10.3278185127  MEMB      139             0.0000000000
     17310       139  PMPE      H7X           -16.2693413291       22.1884142715      -10.0985214391  MEMB      139             0.0000000000
     17311       139  PMPE      H7Y           -17.5168334060       23.4740184087      -10.2514614818  MEMB      139             0.0000000000
     17312       139  PMPE      C38           -15.6669421497       24.1055594402       -9.3136413319  MEMB      139             0.0000000000
     17313       139  PMPE      H8X           -15.9189942333       25.1714626337       -9.5199315473  MEMB      139             0.0000000000
     17314       139  PMPE      H8Y           -14.5795133335       23.9346470637       -9.4827849691  MEMB      139             0.0000000000
     17315       139  PMPE      C39           -15.9760286047       23.8353752009       -7.8470400525  MEMB      139             0.0000000000
     17316       139  PMPE      H9X           -15.6274886337       22.8198967061       -7.5512275622  MEMB      139             0.0000000000
     17317       139  PMPE      H9Y           -17.0807327234       23.8824423924       -7.7060900934  MEMB      139             0.0000000000
     17318       139  PMPE      C310          -15.2880168608       24.9011818459       -6.9873186064  MEMB      139             0.0000000000
     17319       139  PMPE      H10X          -15.1037330970       25.8202171419       -7.5920472578  MEMB      139             0.0000000000
     17320       139  PMPE      H10Y          -14.2872460442       24.5442853869       -6.6588545176  MEMB      139             0.0000000000
     17321       139  PMPE      C311          -16.1292108903       25.3413337015       -5.7983608890  MEMB      139             0.0000000000
     17322       139  PMPE      H11X          -17.0190512500       25.9147831031       -6.1417117134  MEMB      139             0.0000000000
     17323       139  PMPE      H11Y          -15.4939244444       26.0039554630       -5.2022670944  MEMB      139             0.0000000000
     17324       139  PMPE      C312          -16.6155732824       24.2102135220       -4.9082904903  MEMB      139             0.0000000000
     17325       139  PMPE      H12X          -15.7787734815       23.5278031126       -4.6464431769  MEMB      139             0.0000000000
     17326       139  PMPE      H12Y          -17.3969879026       23.6671177114       -5.4756088401  MEMB      139             0.0000000000
     17327       139  PMPE      C313          -17.2088636510       24.7322934646       -3.6194112404  MEMB      139             0.0000000000
     17328       139  PMPE      H13X          -17.6300557612       23.9006204566       -3.0120478015  MEMB      139             0.0000000000
     17329       139  PMPE      H13Y          -18.0628241018       25.4129412317       -3.8563581164  MEMB      139             0.0000000000
     17330       139  PMPE      C314          -16.1662773104       25.4635420311       -2.7734160391  MEMB      139             0.0000000000
     17331       139  PMPE      H14X          -16.8573342586       26.0932070682       -2.2429474929  MEMB      139             0.0000000000
     17332       139  PMPE      H14Y          -15.5467756050       26.2326120886       -3.2285884047  MEMB      139             0.0000000000
     17333       139  PMPE      C315          -15.2599830696       24.5388234852       -1.9462486663  MEMB      139             0.0000000000
     17334       139  PMPE      H15X          -14.7377851210       23.8794826105       -2.6706954464  MEMB      139             0.0000000000
     17335       139  PMPE      H15Y          -15.9287347571       23.9044147986       -1.3259383724  MEMB      139             0.0000000000
     17336       139  PMPE      C316          -14.1847304896       25.1839305895       -1.0498015973  MEMB      139             0.0000000000
     17337       139  PMPE      H16X          -14.6209813704       25.9536935795       -0.3885459963  MEMB      139             0.0000000000
     17338       139  PMPE      H16Y          -13.3897527605       25.6837118813       -1.6383158421  MEMB      139             0.0000000000
     17339       139  PMPE      H16Z          -13.7130284680       24.4045088083       -0.4089652504  MEMB      139             0.0000000000
     17340       140  PMPG      C13           -25.5214078584        7.2441427716      -20.3932114920  MEMB      140             0.0000000000
     17341       140  PMPG      H13A          -24.6634943588        7.8591359324      -20.7422752972  MEMB      140             0.0000000000
     17342       140  PMPG      H13B          -25.1649947670        6.5562973320      -19.5905021128  MEMB      140             0.0000000000
     17343       140  PMPG      OC3           -26.0846817979        6.4619119721      -21.4481808181  MEMB      140             0.0000000000
     17344       140  PMPG      HO3           -25.6101005214        6.5821612541      -22.2632309358  MEMB      140             0.0000000000
     17345       140  PMPG      C12           -26.6195342820        8.1750842747      -19.8228861891  MEMB      140             0.0000000000
     17346       140  PMPG      H12A          -26.8539465999        8.9380453137      -20.5888224751  MEMB      140             0.0000000000
     17347       140  PMPG      OC2           -26.1406087744        8.8704930506      -18.6782430421  MEMB      140             0.0000000000
     17348       140  PMPG      HO2           -26.9435315056        9.2476219809      -18.2998647286  MEMB      140             0.0000000000
     17349       140  PMPG      C11           -27.9167984479        7.3701214779      -19.5255965108  MEMB      140             0.0000000000
     17350       140  PMPG      H11A          -27.5260136886        6.4393036667      -19.0317150522  MEMB      140             0.0000000000
     17351       140  PMPG      H11B          -28.3761957607        7.0566363512      -20.4973034492  MEMB      140             0.0000000000
     17352       140  PMPG      P             -29.9419918230        6.8688750193      -18.2106308961  MEMB      140             0.0000000000
     17353       140  PMPG      O13           -30.4770288314        5.9693820124      -19.2595760553  MEMB      140             0.0000000000
     17354       140  PMPG      O14           -30.8659091979        7.0838502253      -17.1512804540  MEMB      140             0.0000000000
     17355       140  PMPG      O11           -28.9969392706        6.1301137412      -17.2242961385  MEMB      140             0.0000000000
     17356       140  PMPG      O12           -28.9291898556        8.0481185564      -18.7255436013  MEMB      140             0.0000000000
     17357       140  PMPG      C1            -28.1821042147        6.8556779928      -16.2703283301  MEMB      140             0.0000000000
     17358       140  PMPG      HA            -28.6476603399        7.0240782346      -15.2626660584  MEMB      140             0.0000000000
     17359       140  PMPG      HB            -27.8645083424        7.8787234002      -16.6053008653  MEMB      140             0.0000000000
     17360       140  PMPG      C2            -26.9613106468        5.9491539937      -16.1311247365  MEMB      140             0.0000000000
     17361       140  PMPG      HS            -26.4630733071        6.0178013540      -17.1319625228  MEMB      140             0.0000000000
     17362       140  PMPG      O21           -27.4107008473        4.6045901487      -15.8468779832  MEMB      140             0.0000000000
     17363       140  PMPG      C21           -26.6599102723        3.7091385237      -16.4368017362  MEMB      140             0.0000000000
     17364       140  PMPG      O22           -25.7554222784        3.9104224565      -17.2122554081  MEMB      140             0.0000000000
     17365       140  PMPG      C22           -27.0698567013        2.3209608855      -16.0313088219  MEMB      140             0.0000000000
     17366       140  PMPG      H2R           -27.4530366854        1.7587516823      -16.8945324005  MEMB      140             0.0000000000
     17367       140  PMPG      H2S           -27.8295403072        2.4042872543      -15.2468403509  MEMB      140             0.0000000000
     17368       140  PMPG      C3            -25.9912328667        6.4370371462      -15.0382257527  MEMB      140             0.0000000000
     17369       140  PMPG      HX            -25.7113139073        7.4757231307      -15.3423158047  MEMB      140             0.0000000000
     17370       140  PMPG      HY            -25.0597505707        5.8356747567      -15.0331275391  MEMB      140             0.0000000000
     17371       140  PMPG      O31           -26.5623261226        6.3356966678      -13.7146645682  MEMB      140             0.0000000000
     17372       140  PMPG      C31           -26.9270727872        7.4822770459      -13.1814485602  MEMB      140             0.0000000000
     17373       140  PMPG      O32           -26.9860645654        8.5526345474      -13.7586741044  MEMB      140             0.0000000000
     17374       140  PMPG      C32           -27.1113948937        7.3161137805      -11.6910562391  MEMB      140             0.0000000000
     17375       140  PMPG      H2X           -26.1018117433        7.2596268229      -11.2261230190  MEMB      140             0.0000000000
     17376       140  PMPG      H2Y           -27.6556819089        6.3852193781      -11.4403504966  MEMB      140             0.0000000000
     17377       140  PMPG      C23           -25.8129809065        1.6163784987      -15.5723041866  MEMB      140             0.0000000000
     17378       140  PMPG      H3R           -25.0613872233        1.5531903853      -16.3999146518  MEMB      140             0.0000000000
     17379       140  PMPG      H3S           -26.0041939005        0.5666661727      -15.2255090530  MEMB      140             0.0000000000
     17380       140  PMPG      C24           -25.1766607803        2.3388009437      -14.3960431116  MEMB      140             0.0000000000
     17381       140  PMPG      H4R           -24.5226665828        3.2075838916      -14.6092828547  MEMB      140             0.0000000000
     17382       140  PMPG      H4S           -24.5460837358        1.4425728726      -14.2899147303  MEMB      140             0.0000000000
     17383       140  PMPG      C25           -26.1125719674        2.6224079127      -13.1810572052  MEMB      140             0.0000000000
     17384       140  PMPG      H5R           -26.5467640034        1.6280385175      -12.9072538561  MEMB      140             0.0000000000
     17385       140  PMPG      H5S           -26.8593296357        3.3175216824      -13.5914919259  MEMB      140             0.0000000000
     17386       140  PMPG      C26           -25.6632912674        3.3359879686      -11.8670001132  MEMB      140             0.0000000000
     17387       140  PMPG      H6R           -25.6958920839        4.4199398637      -11.8079794332  MEMB      140             0.0000000000
     17388       140  PMPG      H6S           -24.5606586183        3.2407305999      -11.8294453750  MEMB      140             0.0000000000
     17389       140  PMPG      C27           -26.3269736706        2.7546161785      -10.5847950627  MEMB      140             0.0000000000
     17390       140  PMPG      H7R           -25.6379116548        2.9516978290       -9.7127542591  MEMB      140             0.0000000000
     17391       140  PMPG      H7S           -26.6365293267        1.6681932804      -10.6985376475  MEMB      140             0.0000000000
     17392       140  PMPG      C28           -27.4914630631        3.1561642274       -9.8866160139  MEMB      140             0.0000000000
     17393       140  PMPG      H8R           -27.6537658974        2.4028886282       -9.0718194104  MEMB      140             0.0000000000
     17394       140  PMPG      H8S           -28.1192747226        3.0944872761      -10.7412896394  MEMB      140             0.0000000000
     17395       140  PMPG      C29           -27.1546162285        4.4703983235       -9.4132113902  MEMB      140             0.0000000000
     17396       140  PMPG      H9R           -26.5599309695        5.1321336717      -10.0518074323  MEMB      140             0.0000000000
     17397       140  PMPG      C217          -28.3902419377        4.9264047053       -8.7149739100  MEMB      140             0.0000000000
     17398       140  PMPG      H17R          -28.5948512890        5.8802429439       -9.1539056473  MEMB      140             0.0000000000
     17399       140  PMPG      H17S          -29.1121311604        4.1474996228       -8.4922599696  MEMB      140             0.0000000000
     17400       140  PMPG      C210          -27.0775226781        4.7543702846       -7.9704606099  MEMB      140             0.0000000000
     17401       140  PMPG      H10R          -26.5663283322        5.6947486483       -7.7331850103  MEMB      140             0.0000000000
     17402       140  PMPG      C211          -26.7595731248        3.5264473400       -7.1581310872  MEMB      140             0.0000000000
     17403       140  PMPG      H11R          -27.6404814359        2.9019175846       -6.9147481451  MEMB      140             0.0000000000
     17404       140  PMPG      H11S          -26.0073153228        2.8542099344       -7.6344043632  MEMB      140             0.0000000000
     17405       140  PMPG      C212          -26.0055080665        4.0211209609       -5.9660776209  MEMB      140             0.0000000000
     17406       140  PMPG      H12R          -25.0554213982        4.4853689040       -6.2940854878  MEMB      140             0.0000000000
     17407       140  PMPG      H12S          -25.7133060702        3.1010739161       -5.5502438209  MEMB      140             0.0000000000
     17408       140  PMPG      C213          -26.7363145919        4.8606680350       -4.9318508012  MEMB      140             0.0000000000
     17409       140  PMPG      H13R          -26.8147377367        5.8648380749       -5.3937998249  MEMB      140             0.0000000000
     17410       140  PMPG      H13S          -26.0433296039        4.9771149993       -4.0632603677  MEMB      140             0.0000000000
     17411       140  PMPG      C214          -28.1647068798        4.4112448397       -4.4775756483  MEMB      140             0.0000000000
     17412       140  PMPG      H14R          -28.8492249684        4.6174236434       -5.3126590079  MEMB      140             0.0000000000
     17413       140  PMPG      H14S          -28.4198773474        4.9994022619       -3.5599811670  MEMB      140             0.0000000000
     17414       140  PMPG      C215          -28.5895694649        2.9344740129       -4.3220000551  MEMB      140             0.0000000000
     17415       140  PMPG      H15R          -27.8291342539        2.3867801066       -3.9890045112  MEMB      140             0.0000000000
     17416       140  PMPG      H15S          -28.5402455022        2.2813357063       -5.1842700492  MEMB      140             0.0000000000
     17417       140  PMPG      C216          -29.4829088004        2.5506483605       -3.1776455619  MEMB      140             0.0000000000
     17418       140  PMPG      H16R          -29.2141240538        3.2008395954       -2.3582456135  MEMB      140             0.0000000000
     17419       140  PMPG      H16S          -29.3592286617        1.4880339772       -2.8186818357  MEMB      140             0.0000000000
     17420       140  PMPG      H16T          -30.4932029019        2.8459918429       -3.4491252961  MEMB      140             0.0000000000
     17421       140  PMPG      C33           -27.8497502918        8.5435168030      -11.1486515644  MEMB      140             0.0000000000
     17422       140  PMPG      H3X           -28.9053838901        8.5535631948      -11.4979291389  MEMB      140             0.0000000000
     17423       140  PMPG      H3Y           -27.4043424831        9.4956319316      -11.5277319799  MEMB      140             0.0000000000
     17424       140  PMPG      C34           -27.7002329750        8.5606198763       -9.6401790700  MEMB      140             0.0000000000
     17425       140  PMPG      H4X           -26.7512492949        8.0494495468       -9.3660273966  MEMB      140             0.0000000000
     17426       140  PMPG      H4Y           -28.5319506757        8.0124891915       -9.1458327727  MEMB      140             0.0000000000
     17427       140  PMPG      C35           -27.4553817248        9.9585085684       -9.1214349314  MEMB      140             0.0000000000
     17428       140  PMPG      H5X           -28.3501933969       10.5709012300       -9.3720404912  MEMB      140             0.0000000000
     17429       140  PMPG      H5Y           -26.7069245614       10.5028126225       -9.7222040318  MEMB      140             0.0000000000
     17430       140  PMPG      C36           -26.9549786910        9.8994914074       -7.6511319595  MEMB      140             0.0000000000
     17431       140  PMPG      H6X           -26.8795754616       10.9808261169       -7.3953021827  MEMB      140             0.0000000000
     17432       140  PMPG      H6Y           -25.9337968705        9.5525398675       -7.4950796545  MEMB      140             0.0000000000
     17433       140  PMPG      C37           -27.6725171377        8.9045489383       -6.6639122370  MEMB      140             0.0000000000
     17434       140  PMPG      H7X           -28.3972022245        8.1617562197       -7.0346321504  MEMB      140             0.0000000000
     17435       140  PMPG      H7Y           -28.4360436877        9.5069765508       -6.4116449689  MEMB      140             0.0000000000
     17436       140  PMPG      C38           -27.3462113203        8.9088420080       -5.1593507995  MEMB      140             0.0000000000
     17437       140  PMPG      H8X           -27.0739610867        9.9390705989       -4.7942038878  MEMB      140             0.0000000000
     17438       140  PMPG      H8Y           -26.5414032675        8.1829867894       -5.0794842791  MEMB      140             0.0000000000
     17439       140  PMPG      C39           -28.4435594345        8.4261320737       -4.2116196016  MEMB      140             0.0000000000
     17440       140  PMPG      H9X           -29.0010163326        7.5250293996       -4.5312275940  MEMB      140             0.0000000000
     17441       140  PMPG      H9Y           -29.1470245509        9.2470874735       -4.1819289985  MEMB      140             0.0000000000
     17442       140  PMPG      C310          -27.8781933730        8.2106745565       -2.8207616045  MEMB      140             0.0000000000
     17443       140  PMPG      H10X          -27.3781724104        9.1716465327       -2.4886368165  MEMB      140             0.0000000000
     17444       140  PMPG      H10Y          -27.1842635100        7.3776403545       -2.7475858118  MEMB      140             0.0000000000
     17445       140  PMPG      C311          -28.9658798495        7.8873998981       -1.8502194591  MEMB      140             0.0000000000
     17446       140  PMPG      H11X          -29.9099347990        7.3724421228       -2.1031140982  MEMB      140             0.0000000000
     17447       140  PMPG      H11Y          -29.1882508082        8.9069113825       -2.0552933400  MEMB      140             0.0000000000
     17448       140  PMPG      C312          -28.4715113658        7.7141112459       -0.4480023038  MEMB      140             0.0000000000
     17449       140  PMPG      H12X          -29.2212724022        7.5498115399        0.3238697768  MEMB      140             0.0000000000
     17450       140  PMPG      H12Y          -27.8047998550        8.5448320190       -0.1281733373  MEMB      140             0.0000000000
     17451       140  PMPG      C313          -27.7618389719        6.4434811003       -0.3128665291  MEMB      140             0.0000000000
     17452       140  PMPG      H13X          -27.0678586854        6.2949059544       -1.1279355595  MEMB      140             0.0000000000
     17453       140  PMPG      H13Y          -28.5336724676        5.6519950576       -0.3306137057  MEMB      140             0.0000000000
     17454       140  PMPG      C314          -26.9187044015        6.6521104591        0.8882645654  MEMB      140             0.0000000000
     17455       140  PMPG      H14X          -26.3074425413        7.5413667214        0.9670684356  MEMB      140             0.0000000000
     17456       140  PMPG      H14Y          -26.1006820654        5.9040893339        0.8895911546  MEMB      140             0.0000000000
     17457       140  PMPG      C315          -27.7423280639        6.6526456298        2.1058830048  MEMB      140             0.0000000000
     17458       140  PMPG      H15X          -27.2620305755        5.6867419715        2.3042200273  MEMB      140             0.0000000000
     17459       140  PMPG      H15Y          -28.6531457133        6.2318166034        2.3821186504  MEMB      140             0.0000000000
     17460       140  PMPG      C316          -28.2662935169        7.7453504283        3.0083869749  MEMB      140             0.0000000000
     17461       140  PMPG      H16X          -28.7898865887        7.3601996221        3.9428689132  MEMB      140             0.0000000000
     17462       140  PMPG      H16Y          -29.1103696138        8.0922370541        2.4293341487  MEMB      140             0.0000000000
     17463       140  PMPG      H16Z          -27.5648664099        8.5132513452        3.2575070103  MEMB      140             0.0000000000
     17464       141  PMPE      N              16.0074796555       22.0583022051      -20.1236397321  MEMB      141             0.0000000000
     17465       141  PMPE      HN1            16.7374564531       22.6579993706      -20.5808974267  MEMB      141             0.0000000000
     17466       141  PMPE      HN2            16.1029641105       21.1204255305      -20.5654897237  MEMB      141             0.0000000000
     17467       141  PMPE      HN3            15.0905936819       22.4981449205      -20.3378149080  MEMB      141             0.0000000000
     17468       141  PMPE      C12            16.3930677667       22.0043057137      -18.6565334368  MEMB      141             0.0000000000
     17469       141  PMPE      H12A           15.6008331747       21.5090268203      -18.0664959519  MEMB      141             0.0000000000
     17470       141  PMPE      H12B           16.5337206634       23.0363221955      -18.2743659410  MEMB      141             0.0000000000
     17471       141  PMPE      C11            17.7255197512       21.2625667175      -18.4919400089  MEMB      141             0.0000000000
     17472       141  PMPE      H11A           17.5410695423       20.1838720891      -18.7092630642  MEMB      141             0.0000000000
     17473       141  PMPE      H11B           18.0510210916       21.3177724352      -17.4233713562  MEMB      141             0.0000000000
     17474       141  PMPE      P              19.3910967089       23.2218090328      -19.0336232664  MEMB      141             0.0000000000
     17475       141  PMPE      O13            18.4423762968       24.2574188190      -19.4585622613  MEMB      141             0.0000000000
     17476       141  PMPE      O14            20.7491024876       23.3364987554      -19.6095462956  MEMB      141             0.0000000000
     17477       141  PMPE      O11            19.4263210380       23.1697798433      -17.4441266957  MEMB      141             0.0000000000
     17478       141  PMPE      O12            18.7219968687       21.7929999630      -19.3819473484  MEMB      141             0.0000000000
     17479       141  PMPE      C1             20.5611125212       22.5072012059      -16.8565190546  MEMB      141             0.0000000000
     17480       141  PMPE      HA             21.5116029720       22.9509865650      -17.2238851876  MEMB      141             0.0000000000
     17481       141  PMPE      HB             20.4375066120       21.4186295947      -16.9879219259  MEMB      141             0.0000000000
     17482       141  PMPE      C2             20.6446648204       22.4904916974      -15.3284259516  MEMB      141             0.0000000000
     17483       141  PMPE      HS             21.3850598248       22.0479404192      -14.7496586223  MEMB      141             0.0000000000
     17484       141  PMPE      O21            19.3314859193       21.9799039330      -14.8436835101  MEMB      141             0.0000000000
     17485       141  PMPE      C21            19.1101855228       21.8723603864      -13.5174298806  MEMB      141             0.0000000000
     17486       141  PMPE      O22            19.9690638044       21.8352045605      -12.6723247181  MEMB      141             0.0000000000
     17487       141  PMPE      C22            17.6324800596       21.6931766596      -13.1713615699  MEMB      141             0.0000000000
     17488       141  PMPE      H2R            17.6451102653       20.7066854627      -12.6615666088  MEMB      141             0.0000000000
     17489       141  PMPE      H2S            17.0544901293       21.6256752685      -14.1055358804  MEMB      141             0.0000000000
     17490       141  PMPE      C3             20.9682744127       23.8397811839      -14.8830529385  MEMB      141             0.0000000000
     17491       141  PMPE      HX             19.8869556712       23.8708335004      -14.6883619231  MEMB      141             0.0000000000
     17492       141  PMPE      HY             21.2473188292       24.8038516057      -15.1796188262  MEMB      141             0.0000000000
     17493       141  PMPE      O31            21.8883486485       24.7227440500      -14.3056292306  MEMB      141             0.0000000000
     17494       141  PMPE      C31            22.8358825176       24.4296648185      -13.8501555613  MEMB      141             0.0000000000
     17495       141  PMPE      O32            23.7828299220       24.2875402745      -14.5878067034  MEMB      141             0.0000000000
     17496       141  PMPE      C32            22.6010515742       24.5716121847      -12.3444601374  MEMB      141             0.0000000000
     17497       141  PMPE      H2X            22.5810926712       25.5493695841      -11.8385990863  MEMB      141             0.0000000000
     17498       141  PMPE      H2Y            23.6400071250       24.6699707081      -12.3863147121  MEMB      141             0.0000000000
     17499       141  PMPE      C23            17.0487024847       22.6798890113      -12.1210151528  MEMB      141             0.0000000000
     17500       141  PMPE      H3R            15.9391661059       22.6173050405      -12.1149327300  MEMB      141             0.0000000000
     17501       141  PMPE      H3S            17.2554556583       23.7311718319      -12.3680949777  MEMB      141             0.0000000000
     17502       141  PMPE      C24            17.5817635049       22.3520583638      -10.7202380172  MEMB      141             0.0000000000
     17503       141  PMPE      H4R            17.7421806342       23.3002441371      -10.1688402974  MEMB      141             0.0000000000
     17504       141  PMPE      H4S            18.5639156914       21.8348181721      -10.7787042047  MEMB      141             0.0000000000
     17505       141  PMPE      C25            16.6730000388       21.4244455804       -9.9193558647  MEMB      141             0.0000000000
     17506       141  PMPE      H5R            16.4036728724       20.5128654386      -10.4962788541  MEMB      141             0.0000000000
     17507       141  PMPE      H5S            15.7386101599       21.9893838914       -9.7061131772  MEMB      141             0.0000000000
     17508       141  PMPE      C26            17.3209822203       20.9654389788       -8.6188855841  MEMB      141             0.0000000000
     17509       141  PMPE      H6R            17.7124236447       21.8675718770       -8.0927190818  MEMB      141             0.0000000000
     17510       141  PMPE      H6S            18.1933110128       20.2876773313       -8.7682174169  MEMB      141             0.0000000000
     17511       141  PMPE      C27            16.3089040245       20.2717167381       -7.7372664242  MEMB      141             0.0000000000
     17512       141  PMPE      H7R            16.1136522131       19.2096860091       -8.0096968692  MEMB      141             0.0000000000
     17513       141  PMPE      H7S            15.3219703650       20.7948687068       -7.7873317038  MEMB      141             0.0000000000
     17514       141  PMPE      C28            16.8336724912       20.2861952752       -6.3384856080  MEMB      141             0.0000000000
     17515       141  PMPE      H8R            16.9579843614       21.3467053381       -5.9692932796  MEMB      141             0.0000000000
     17516       141  PMPE      H8S            17.7621673353       19.7384242226       -6.1336084551  MEMB      141             0.0000000000
     17517       141  PMPE      C29            15.8385383658       19.5561646439       -5.5951318551  MEMB      141             0.0000000000
     17518       141  PMPE      H9R            15.0073725188       18.9337750259       -6.0167746607  MEMB      141             0.0000000000
     17519       141  PMPE      C217           15.2400859043       20.7703791177       -4.9994471862  MEMB      141             0.0000000000
     17520       141  PMPE      H17R           14.1770472948       20.7375518947       -5.2836313138  MEMB      141             0.0000000000
     17521       141  PMPE      H17S           15.5086421760       21.5510430195       -4.3103158902  MEMB      141             0.0000000000
     17522       141  PMPE      C210           15.9921286068       19.5453574318       -4.1772307502  MEMB      141             0.0000000000
     17523       141  PMPE      H10R           15.5571269062       18.6338878127       -3.7202990156  MEMB      141             0.0000000000
     17524       141  PMPE      C211           17.2669367713       19.8022370947       -3.4833561640  MEMB      141             0.0000000000
     17525       141  PMPE      H11R           17.5144999338       20.8746883495       -3.5994246005  MEMB      141             0.0000000000
     17526       141  PMPE      H11S           18.0190158319       19.1132389627       -3.9331637155  MEMB      141             0.0000000000
     17527       141  PMPE      C212           17.4233750678       19.4350235302       -2.0052868031  MEMB      141             0.0000000000
     17528       141  PMPE      H12R           18.2609013485       20.0377011286       -1.6158512003  MEMB      141             0.0000000000
     17529       141  PMPE      H12S           17.6279660475       18.3594521229       -1.7903228303  MEMB      141             0.0000000000
     17530       141  PMPE      C213           16.4169563004       19.8612385041       -1.0418549638  MEMB      141             0.0000000000
     17531       141  PMPE      H13R           15.4163054018       19.4610338529       -1.2623454819  MEMB      141             0.0000000000
     17532       141  PMPE      H13S           16.3607676356       20.9763290044       -0.9659533227  MEMB      141             0.0000000000
     17533       141  PMPE      C214           16.8249836800       19.1493431114        0.2183919584  MEMB      141             0.0000000000
     17534       141  PMPE      H14R           16.9689802210       18.1298961988        0.5168148193  MEMB      141             0.0000000000
     17535       141  PMPE      H14S           15.7509978763       19.0057588856        0.4387669780  MEMB      141             0.0000000000
     17536       141  PMPE      C215           17.8932045649       19.8887995083        1.0168194799  MEMB      141             0.0000000000
     17537       141  PMPE      H15R           17.8986613775       20.9576192365        0.6586395987  MEMB      141             0.0000000000
     17538       141  PMPE      H15S           18.8103081649       19.3340456409        0.7803315197  MEMB      141             0.0000000000
     17539       141  PMPE      C216           17.8737343259       19.9649742534        2.5490784404  MEMB      141             0.0000000000
     17540       141  PMPE      H16R           17.6059267936       21.0035504840        2.8511027622  MEMB      141             0.0000000000
     17541       141  PMPE      H16S           17.4484569785       19.0088346738        2.8514458921  MEMB      141             0.0000000000
     17542       141  PMPE      H16T           18.5712364181       20.1677761185        3.3733498075  MEMB      141             0.0000000000
     17543       141  PMPE      C33            21.7159613886       23.5898465631      -11.4254917792  MEMB      141             0.0000000000
     17544       141  PMPE      H3X            22.4456573520       23.4598860676      -10.8079656129  MEMB      141             0.0000000000
     17545       141  PMPE      H3Y            21.6856145223       22.5030442314      -11.4152249029  MEMB      141             0.0000000000
     17546       141  PMPE      C34            20.9292904696       24.2105052338      -10.3079329454  MEMB      141             0.0000000000
     17547       141  PMPE      H4X            20.0542653140       23.7579379392      -10.8308562719  MEMB      141             0.0000000000
     17548       141  PMPE      H4Y            21.1612606829       25.2995202742      -10.2671555353  MEMB      141             0.0000000000
     17549       141  PMPE      C35            20.1536734792       23.7970982841       -9.0974538722  MEMB      141             0.0000000000
     17550       141  PMPE      H5X            20.1584857115       22.6989220625       -9.0132653245  MEMB      141             0.0000000000
     17551       141  PMPE      H5Y            19.1204864515       24.1774836011       -9.1102224667  MEMB      141             0.0000000000
     17552       141  PMPE      C36            20.8180778735       24.5369221515       -8.0350398366  MEMB      141             0.0000000000
     17553       141  PMPE      H6X            21.6895676352       25.0635083559       -8.3827107541  MEMB      141             0.0000000000
     17554       141  PMPE      H6Y            21.0584657731       23.6642222547       -7.5219481790  MEMB      141             0.0000000000
     17555       141  PMPE      C37            20.3035471411       25.3854792297       -6.9669424136  MEMB      141             0.0000000000
     17556       141  PMPE      H7X            20.2742775978       26.2074513353       -7.5870432292  MEMB      141             0.0000000000
     17557       141  PMPE      H7Y            20.9773450996       25.9189339800       -6.2785047819  MEMB      141             0.0000000000
     17558       141  PMPE      C38            19.0139066749       24.9630724809       -6.3608740539  MEMB      141             0.0000000000
     17559       141  PMPE      H8X            18.5759942537       24.2165003225       -7.0355491757  MEMB      141             0.0000000000
     17560       141  PMPE      H8Y            18.2460458047       25.7111119716       -6.1712052290  MEMB      141             0.0000000000
     17561       141  PMPE      C39            19.3895307651       24.5603019897       -4.9881408664  MEMB      141             0.0000000000
     17562       141  PMPE      H9X            20.2208694944       25.1483126030       -4.5886805459  MEMB      141             0.0000000000
     17563       141  PMPE      H9Y            19.7056819852       23.6006069979       -5.3358872142  MEMB      141             0.0000000000
     17564       141  PMPE      C310           18.4082213078       24.7562997795       -3.8788515615  MEMB      141             0.0000000000
     17565       141  PMPE      H10X           17.4130146796       24.6313263232       -4.3280677134  MEMB      141             0.0000000000
     17566       141  PMPE      H10Y           18.5469533453       25.7862724579       -3.4796172499  MEMB      141             0.0000000000
     17567       141  PMPE      C311           18.6733567978       23.8766547941       -2.6800683858  MEMB      141             0.0000000000
     17568       141  PMPE      H11X           19.5309628694       24.2587347120       -2.0658230222  MEMB      141             0.0000000000
     17569       141  PMPE      H11Y           18.7896943286       22.8293379724       -2.9814461591  MEMB      141             0.0000000000
     17570       141  PMPE      C312           17.5105967872       23.6282977737       -1.8390134633  MEMB      141             0.0000000000
     17571       141  PMPE      H12X           17.7689854083       22.8529662450       -1.0867905174  MEMB      141             0.0000000000
     17572       141  PMPE      H12Y           16.6837500260       23.1652521256       -2.4385819265  MEMB      141             0.0000000000
     17573       141  PMPE      C313           17.2133306172       24.9249113526       -1.1938361822  MEMB      141             0.0000000000
     17574       141  PMPE      H13X           16.9618902866       25.7447920151       -1.9211261546  MEMB      141             0.0000000000
     17575       141  PMPE      H13Y           17.9191854759       25.3385444547       -0.4455546752  MEMB      141             0.0000000000
     17576       141  PMPE      C314           16.0182754068       24.5895013053       -0.4656262330  MEMB      141             0.0000000000
     17577       141  PMPE      H14X           15.3086571098       24.2584393366       -1.2819648061  MEMB      141             0.0000000000
     17578       141  PMPE      H14Y           15.8075923726       25.6161032826       -0.1221098719  MEMB      141             0.0000000000
     17579       141  PMPE      C315           16.0230591189       23.5421759382        0.6784721709  MEMB      141             0.0000000000
     17580       141  PMPE      H15X           16.3588258210       22.6164205142        0.2226441893  MEMB      141             0.0000000000
     17581       141  PMPE      H15Y           15.0719074201       23.0790546031        0.9740448905  MEMB      141             0.0000000000
     17582       141  PMPE      C316           16.6134080724       23.9530260650        2.0451419192  MEMB      141             0.0000000000
     17583       141  PMPE      H16X           16.3543306544       23.2298403575        2.8342541399  MEMB      141             0.0000000000
     17584       141  PMPE      H16Y           16.2396850942       24.8521903601        2.5500931721  MEMB      141             0.0000000000
     17585       141  PMPE      H16Z           17.6715698071       24.1624076740        1.9374461283  MEMB      141             0.0000000000
     17586       142  PMPG      C13           -24.8469042839       13.0923143184      -17.5147013526  MEMB      142             0.0000000000
     17587       142  PMPG      H13A          -23.9281596630       13.5742433973      -17.1089103420  MEMB      142             0.0000000000
     17588       142  PMPG      H13B          -25.6104004653       13.0429423974      -16.7075778465  MEMB      142             0.0000000000
     17589       142  PMPG      OC3           -24.5639941112       11.7655599306      -17.9436688767  MEMB      142             0.0000000000
     17590       142  PMPG      HO3           -25.3176656442       11.4992186507      -18.4777682745  MEMB      142             0.0000000000
     17591       142  PMPG      C12           -25.3278601590       13.9484199079      -18.7018839407  MEMB      142             0.0000000000
     17592       142  PMPG      H12A          -26.3087672288       13.5714211090      -19.0631874590  MEMB      142             0.0000000000
     17593       142  PMPG      OC2           -24.4197807979       13.8584504607      -19.8089678997  MEMB      142             0.0000000000
     17594       142  PMPG      HO2           -24.6376396189       14.6663782836      -20.3002796878  MEMB      142             0.0000000000
     17595       142  PMPG      C11           -25.5558418785       15.4156269323      -18.3112835855  MEMB      142             0.0000000000
     17596       142  PMPG      H11A          -24.6896950803       15.7494051399      -17.6717449188  MEMB      142             0.0000000000
     17597       142  PMPG      H11B          -26.4666352376       15.5446597849      -17.6904012071  MEMB      142             0.0000000000
     17598       142  PMPG      P             -24.8549213177       17.4311853259      -19.6631613691  MEMB      142             0.0000000000
     17599       142  PMPG      O13           -25.3371448740       18.2781940084      -20.7726793374  MEMB      142             0.0000000000
     17600       142  PMPG      O14           -23.4558827179       16.9599911270      -19.6416978473  MEMB      142             0.0000000000
     17601       142  PMPG      O11           -25.2948577649       18.1452564546      -18.3259520060  MEMB      142             0.0000000000
     17602       142  PMPG      O12           -25.7565989198       16.1534299788      -19.5205993932  MEMB      142             0.0000000000
     17603       142  PMPG      C1            -25.1781214772       19.5480749344      -18.1745840855  MEMB      142             0.0000000000
     17604       142  PMPG      HA            -26.1664915329       19.9982618409      -18.1541121023  MEMB      142             0.0000000000
     17605       142  PMPG      HB            -24.5971743578       20.0477814824      -18.9900824688  MEMB      142             0.0000000000
     17606       142  PMPG      C2            -24.5175142334       19.8777569637      -16.8341302130  MEMB      142             0.0000000000
     17607       142  PMPG      HS            -24.1152360455       20.8933537046      -16.9687094678  MEMB      142             0.0000000000
     17608       142  PMPG      O21           -23.5087753162       18.8904559612      -16.5806175511  MEMB      142             0.0000000000
     17609       142  PMPG      C21           -22.5166370430       19.2342551458      -15.8072405987  MEMB      142             0.0000000000
     17610       142  PMPG      O22           -22.3714248867       20.3007127861      -15.2338588371  MEMB      142             0.0000000000
     17611       142  PMPG      C22           -21.6182028099       18.0019505322      -15.6223939847  MEMB      142             0.0000000000
     17612       142  PMPG      H2R           -20.8105820090       18.2610445180      -14.9155245251  MEMB      142             0.0000000000
     17613       142  PMPG      H2S           -21.1561197643       17.7503657053      -16.5959122706  MEMB      142             0.0000000000
     17614       142  PMPG      C3            -25.5497933318       19.9418079100      -15.6736869548  MEMB      142             0.0000000000
     17615       142  PMPG      HX            -26.3889009315       20.5912676287      -16.0007648921  MEMB      142             0.0000000000
     17616       142  PMPG      HY            -25.0556002457       20.4079397251      -14.7868723947  MEMB      142             0.0000000000
     17617       142  PMPG      O31           -26.1127486832       18.6654809573      -15.3805410973  MEMB      142             0.0000000000
     17618       142  PMPG      C31           -26.9553259912       18.6814555338      -14.3783166293  MEMB      142             0.0000000000
     17619       142  PMPG      O32           -27.2786809658       19.6365674041      -13.7050515602  MEMB      142             0.0000000000
     17620       142  PMPG      C32           -27.4945142268       17.2984552690      -14.2161788116  MEMB      142             0.0000000000
     17621       142  PMPG      H2X           -28.3092204098       17.1642935149      -14.9651083925  MEMB      142             0.0000000000
     17622       142  PMPG      H2Y           -27.9484079038       17.2922969388      -13.2042039956  MEMB      142             0.0000000000
     17623       142  PMPG      C23           -22.3906337938       16.7824543462      -15.0767140115  MEMB      142             0.0000000000
     17624       142  PMPG      H3R           -21.7068356353       15.9178235475      -15.1273712538  MEMB      142             0.0000000000
     17625       142  PMPG      H3S           -23.2610670355       16.5320194596      -15.7228748895  MEMB      142             0.0000000000
     17626       142  PMPG      C24           -22.9131182181       17.0602843395      -13.6713389450  MEMB      142             0.0000000000
     17627       142  PMPG      H4R           -23.3868046460       16.1543147287      -13.2156028805  MEMB      142             0.0000000000
     17628       142  PMPG      H4S           -23.6541726881       17.8718168868      -13.7656241733  MEMB      142             0.0000000000
     17629       142  PMPG      C25           -21.8978264256       17.5656806887      -12.6979371845  MEMB      142             0.0000000000
     17630       142  PMPG      H5R           -21.2048038759       18.4154646418      -12.9140110624  MEMB      142             0.0000000000
     17631       142  PMPG      H5S           -21.3489302715       16.6674322268      -12.5519276462  MEMB      142             0.0000000000
     17632       142  PMPG      C26           -22.3370842107       17.6480479093      -11.2935676379  MEMB      142             0.0000000000
     17633       142  PMPG      H6R           -21.3642870664       18.0521867430      -10.9182329372  MEMB      142             0.0000000000
     17634       142  PMPG      H6S           -22.6273867460       16.6776070338      -10.8184939160  MEMB      142             0.0000000000
     17635       142  PMPG      C27           -23.3438896191       18.6821583164      -11.0850664010  MEMB      142             0.0000000000
     17636       142  PMPG      H7R           -24.2660355608       18.4726124677      -11.6637602947  MEMB      142             0.0000000000
     17637       142  PMPG      H7S           -22.8701945443       19.6025941568      -11.5203848625  MEMB      142             0.0000000000
     17638       142  PMPG      C28           -23.6633139281       18.7958674028       -9.6086147512  MEMB      142             0.0000000000
     17639       142  PMPG      H8R           -22.7948049540       19.1063321094       -9.0138759361  MEMB      142             0.0000000000
     17640       142  PMPG      H8S           -24.2645330779       18.0058046018       -9.1299800590  MEMB      142             0.0000000000
     17641       142  PMPG      C29           -24.4735808409       19.9570029339       -9.6393354127  MEMB      142             0.0000000000
     17642       142  PMPG      H9R           -24.0049051643       20.7008232718      -10.3283397161  MEMB      142             0.0000000000
     17643       142  PMPG      C217          -25.9423042658       19.6816620567       -9.8100672761  MEMB      142             0.0000000000
     17644       142  PMPG      H17R          -26.2700202152       20.2361544521      -10.6494286983  MEMB      142             0.0000000000
     17645       142  PMPG      H17S          -26.2855655739       18.6965992715       -9.7576327030  MEMB      142             0.0000000000
     17646       142  PMPG      C210          -25.4127766124       20.2918235119       -8.5015116426  MEMB      142             0.0000000000
     17647       142  PMPG      H10R          -25.9887429886       21.1679062102       -8.3349382373  MEMB      142             0.0000000000
     17648       142  PMPG      C211          -25.7392837862       19.5585287761       -7.2924036178  MEMB      142             0.0000000000
     17649       142  PMPG      H11R          -26.5428993528       20.0959888820       -6.7035642923  MEMB      142             0.0000000000
     17650       142  PMPG      H11S          -26.0960441346       18.5656538834       -7.5975024224  MEMB      142             0.0000000000
     17651       142  PMPG      C212          -24.6010348303       19.5276459605       -6.3740945752  MEMB      142             0.0000000000
     17652       142  PMPG      H12R          -24.4451533574       20.4557626304       -5.7675327277  MEMB      142             0.0000000000
     17653       142  PMPG      H12S          -23.6183246983       19.2636588601       -6.8261158293  MEMB      142             0.0000000000
     17654       142  PMPG      C213          -25.1096932623       18.4250729070       -5.5345715730  MEMB      142             0.0000000000
     17655       142  PMPG      H13R          -24.8673631022       17.4299315675       -5.9960011313  MEMB      142             0.0000000000
     17656       142  PMPG      H13S          -26.1163596128       18.4898294200       -5.0744229013  MEMB      142             0.0000000000
     17657       142  PMPG      C214          -24.3180941535       18.5217670996       -4.4006413444  MEMB      142             0.0000000000
     17658       142  PMPG      H14R          -23.3381223161       18.6603223179       -4.8464867972  MEMB      142             0.0000000000
     17659       142  PMPG      H14S          -24.5106182653       17.5149135170       -3.9491042656  MEMB      142             0.0000000000
     17660       142  PMPG      C215          -24.4003815984       19.6705857045       -3.4622699804  MEMB      142             0.0000000000
     17661       142  PMPG      H15R          -23.9552038715       20.6312916518       -3.7275250225  MEMB      142             0.0000000000
     17662       142  PMPG      H15S          -23.5655554142       19.3830841773       -2.8220811685  MEMB      142             0.0000000000
     17663       142  PMPG      C216          -25.7795513709       19.7358469480       -2.8430021959  MEMB      142             0.0000000000
     17664       142  PMPG      H16R          -26.4606797695       20.1544548634       -3.5559571833  MEMB      142             0.0000000000
     17665       142  PMPG      H16S          -25.9276629484       20.4825323166       -2.0358950365  MEMB      142             0.0000000000
     17666       142  PMPG      H16T          -25.9679121511       18.7345194914       -2.3584085951  MEMB      142             0.0000000000
     17667       142  PMPG      C33           -26.3050323012       16.3090977222      -14.3766459570  MEMB      142             0.0000000000
     17668       142  PMPG      H3X           -25.3708316179       16.6698923589      -13.9310925266  MEMB      142             0.0000000000
     17669       142  PMPG      H3Y           -26.1717383151       16.0344529659      -15.4482756565  MEMB      142             0.0000000000
     17670       142  PMPG      C34           -26.4671881578       15.0611914773      -13.5813326525  MEMB      142             0.0000000000
     17671       142  PMPG      H4X           -25.9858237886       14.1364356405      -13.9583651877  MEMB      142             0.0000000000
     17672       142  PMPG      H4Y           -27.4688999121       15.0264881414      -13.9505681467  MEMB      142             0.0000000000
     17673       142  PMPG      C35           -26.4294566175       15.1935561141      -12.0660656509  MEMB      142             0.0000000000
     17674       142  PMPG      H5X           -27.4520893751       15.3243041659      -11.6404500666  MEMB      142             0.0000000000
     17675       142  PMPG      H5Y           -25.8848280561       16.1333395339      -11.8329236342  MEMB      142             0.0000000000
     17676       142  PMPG      C36           -25.7315951610       13.9653554922      -11.4665619784  MEMB      142             0.0000000000
     17677       142  PMPG      H6X           -25.1261772903       13.4306028727      -12.2388365226  MEMB      142             0.0000000000
     17678       142  PMPG      H6Y           -26.4642585442       13.2150509390      -11.0971100448  MEMB      142             0.0000000000
     17679       142  PMPG      C37           -24.8100876019       14.3179986040      -10.3110778002  MEMB      142             0.0000000000
     17680       142  PMPG      H7X           -23.9256853235       14.8702946158      -10.6987084445  MEMB      142             0.0000000000
     17681       142  PMPG      H7Y           -24.4647379322       13.3513763846       -9.8845505752  MEMB      142             0.0000000000
     17682       142  PMPG      C38           -25.4629633286       15.1744302594       -9.2231057166  MEMB      142             0.0000000000
     17683       142  PMPG      H8X           -25.7647454341       16.1665683681       -9.6276017902  MEMB      142             0.0000000000
     17684       142  PMPG      H8Y           -24.6849786602       15.3346466214       -8.4455416703  MEMB      142             0.0000000000
     17685       142  PMPG      C39           -26.6477622576       14.5097431169       -8.5282673417  MEMB      142             0.0000000000
     17686       142  PMPG      H9X           -26.3256207066       13.4804828446       -8.2415119894  MEMB      142             0.0000000000
     17687       142  PMPG      H9Y           -27.5030187662       14.3909768608       -9.2332401025  MEMB      142             0.0000000000
     17688       142  PMPG      C310          -27.0647450152       15.2881734887       -7.2638456172  MEMB      142             0.0000000000
     17689       142  PMPG      H10X          -27.7871595012       16.0927314237       -7.5405269522  MEMB      142             0.0000000000
     17690       142  PMPG      H10Y          -26.2115484567       15.6918777054       -6.6912317132  MEMB      142             0.0000000000
     17691       142  PMPG      C311          -27.7625349352       14.3677772915       -6.3024865597  MEMB      142             0.0000000000
     17692       142  PMPG      H11X          -27.1386398099       13.4660858677       -6.0891208190  MEMB      142             0.0000000000
     17693       142  PMPG      H11Y          -28.6096303710       14.1750155172       -6.9846497163  MEMB      142             0.0000000000
     17694       142  PMPG      C312          -28.3029042039       14.9175098644       -4.9808260712  MEMB      142             0.0000000000
     17695       142  PMPG      H12X          -28.7330965395       14.0336216218       -4.4486854598  MEMB      142             0.0000000000
     17696       142  PMPG      H12Y          -29.1153868501       15.6355161602       -5.2173292802  MEMB      142             0.0000000000
     17697       142  PMPG      C313          -27.2554217620       15.6341428951       -4.1192589281  MEMB      142             0.0000000000
     17698       142  PMPG      H13X          -26.9605954828       16.5684206124       -4.6369817716  MEMB      142             0.0000000000
     17699       142  PMPG      H13Y          -26.3590824782       14.9785217813       -4.0821159201  MEMB      142             0.0000000000
     17700       142  PMPG      C314          -27.6408494795       16.0208274020       -2.6699879640  MEMB      142             0.0000000000
     17701       142  PMPG      H14X          -26.6849656860       16.2851981938       -2.1744671111  MEMB      142             0.0000000000
     17702       142  PMPG      H14Y          -28.0301066493       15.1483111709       -2.1105835017  MEMB      142             0.0000000000
     17703       142  PMPG      C315          -28.5626718628       17.2567186353       -2.5300331498  MEMB      142             0.0000000000
     17704       142  PMPG      H15X          -29.1014841043       17.3742472544       -3.4755263468  MEMB      142             0.0000000000
     17705       142  PMPG      H15Y          -28.0414215463       18.2079517580       -2.6668041104  MEMB      142             0.0000000000
     17706       142  PMPG      C316          -29.3467612401       17.4079664475       -1.2012449608  MEMB      142             0.0000000000
     17707       142  PMPG      H16X          -28.6447036421       17.3704279798       -0.3486368483  MEMB      142             0.0000000000
     17708       142  PMPG      H16Y          -30.0403643274       16.6610687372       -0.8833192913  MEMB      142             0.0000000000
     17709       142  PMPG      H16Z          -30.0975311745       18.2188655786       -1.2016844503  MEMB      142             0.0000000000
     17710       143  PMPE      N              25.0136657335      -10.2023602041      -18.8887399630  MEMB      143             0.0000000000
     17711       143  PMPE      HN1            24.2811622663       -9.5721093242      -18.4951505214  MEMB      143             0.0000000000
     17712       143  PMPE      HN2            25.3278672087       -9.8380608300      -19.8151122158  MEMB      143             0.0000000000
     17713       143  PMPE      HN3            24.6760480064      -11.1852731200      -18.9969300252  MEMB      143             0.0000000000
     17714       143  PMPE      C12            26.1880546735      -10.2094150675      -17.9385220425  MEMB      143             0.0000000000
     17715       143  PMPE      H12A           25.8138606635      -10.4844302056      -16.9288847489  MEMB      143             0.0000000000
     17716       143  PMPE      H12B           26.6168130941       -9.1851223691      -17.9310142645  MEMB      143             0.0000000000
     17717       143  PMPE      C11            27.2752066581      -11.2135674663      -18.3342193885  MEMB      143             0.0000000000
     17718       143  PMPE      H11A           26.8341669708      -12.1849340361      -18.6670956495  MEMB      143             0.0000000000
     17719       143  PMPE      H11B           27.8435987692      -11.4027767403      -17.3866580898  MEMB      143             0.0000000000
     17720       143  PMPE      P              29.5899355042      -11.3235153383      -19.4634518179  MEMB      143             0.0000000000
     17721       143  PMPE      O13            30.3852473802      -10.5995384266      -20.4887600029  MEMB      143             0.0000000000
     17722       143  PMPE      O14            29.4098340535      -12.7766185571      -19.5801817437  MEMB      143             0.0000000000
     17723       143  PMPE      O11            30.2897461362      -11.0006641218      -18.1082688950  MEMB      143             0.0000000000
     17724       143  PMPE      O12            28.1289071058      -10.6554372086      -19.3415176220  MEMB      143             0.0000000000
     17725       143  PMPE      C1             30.4467673949       -9.6298667498      -17.8079175484  MEMB      143             0.0000000000
     17726       143  PMPE      HA             29.5210176843       -9.0216164891      -17.9745333114  MEMB      143             0.0000000000
     17727       143  PMPE      HB             31.2849916888       -9.1560928246      -18.3650846069  MEMB      143             0.0000000000
     17728       143  PMPE      C2             30.7054644997       -9.5744774745      -16.3470969843  MEMB      143             0.0000000000
     17729       143  PMPE      HS             31.6064974560      -10.1599751151      -16.0285848777  MEMB      143             0.0000000000
     17730       143  PMPE      O21            29.4782982183       -9.9217215174      -15.6827394919  MEMB      143             0.0000000000
     17731       143  PMPE      C21            29.5852112606      -10.7370166386      -14.6715760520  MEMB      143             0.0000000000
     17732       143  PMPE      O22            30.6063052962      -11.0993178416      -14.1142809482  MEMB      143             0.0000000000
     17733       143  PMPE      C22            28.1860288905      -11.2058689369      -14.3619385111  MEMB      143             0.0000000000
     17734       143  PMPE      H2R            27.9363810816      -12.0623325786      -15.0069351328  MEMB      143             0.0000000000
     17735       143  PMPE      H2S            27.4415281944      -10.3925027507      -14.5059737317  MEMB      143             0.0000000000
     17736       143  PMPE      C3             31.0530062272       -8.2057138995      -16.0361160537  MEMB      143             0.0000000000
     17737       143  PMPE      HX             30.1723622305       -7.5269050682      -16.3170970831  MEMB      143             0.0000000000
     17738       143  PMPE      HY             31.8648453743       -7.7404610239      -16.6370325159  MEMB      143             0.0000000000
     17739       143  PMPE      O31            31.2735281829       -8.3435275225      -14.6153056451  MEMB      143             0.0000000000
     17740       143  PMPE      C31            32.2248166598       -8.4994223350      -13.6579566332  MEMB      143             0.0000000000
     17741       143  PMPE      O32            33.2795242571       -9.0587080308      -13.8275720516  MEMB      143             0.0000000000
     17742       143  PMPE      C32            31.9754827538       -7.4533783858      -12.4884006364  MEMB      143             0.0000000000
     17743       143  PMPE      H2X            31.8723784822       -6.3458129015      -12.6193202567  MEMB      143             0.0000000000
     17744       143  PMPE      H2Y            32.6987585008       -7.3134818736      -11.7405139150  MEMB      143             0.0000000000
     17745       143  PMPE      C23            28.0978707452      -11.6830523603      -12.9580221122  MEMB      143             0.0000000000
     17746       143  PMPE      H3R            28.6036606038      -10.9360257563      -12.2937330060  MEMB      143             0.0000000000
     17747       143  PMPE      H3S            28.5790521817      -12.6689350927      -12.7453296091  MEMB      143             0.0000000000
     17748       143  PMPE      C24            26.6768338731      -11.7410904350      -12.5730244061  MEMB      143             0.0000000000
     17749       143  PMPE      H4R            26.0950401403      -12.6651013680      -12.8758407268  MEMB      143             0.0000000000
     17750       143  PMPE      H4S            26.0312018894      -10.8358778793      -12.6808314393  MEMB      143             0.0000000000
     17751       143  PMPE      C25            26.9696208888      -11.7391911694      -11.1620336140  MEMB      143             0.0000000000
     17752       143  PMPE      H5R            27.5971813535      -12.5174990442      -10.6833337514  MEMB      143             0.0000000000
     17753       143  PMPE      H5S            25.9466347584      -12.2267163573      -11.0913972032  MEMB      143             0.0000000000
     17754       143  PMPE      C26            27.1770344670      -10.2978335923      -10.4492756711  MEMB      143             0.0000000000
     17755       143  PMPE      H6R            26.1539559197       -9.8372139346      -10.3684871063  MEMB      143             0.0000000000
     17756       143  PMPE      H6S            27.7292036037       -9.5850046069      -11.0626813104  MEMB      143             0.0000000000
     17757       143  PMPE      C27            27.7981432100      -10.3480359294       -8.9914675998  MEMB      143             0.0000000000
     17758       143  PMPE      H7R            28.8610998254      -10.6272160779       -9.0435815411  MEMB      143             0.0000000000
     17759       143  PMPE      H7S            27.5917883933      -11.2052821921       -8.3515324096  MEMB      143             0.0000000000
     17760       143  PMPE      C28            27.4973877732       -9.1524950996       -8.0333748492  MEMB      143             0.0000000000
     17761       143  PMPE      H8R            28.1330449957       -8.4392464508       -8.5508715665  MEMB      143             0.0000000000
     17762       143  PMPE      H8S            27.9249694770       -9.3720629009       -7.0303452949  MEMB      143             0.0000000000
     17763       143  PMPE      C29            26.1424722916       -8.3659925370       -7.9737709360  MEMB      143             0.0000000000
     17764       143  PMPE      H9R            25.7857937048       -7.9132111453       -8.8923765041  MEMB      143             0.0000000000
     17765       143  PMPE      C217           26.0269712446       -7.5453660610       -6.6912845027  MEMB      143             0.0000000000
     17766       143  PMPE      H17R           25.4992157348       -6.6235551746       -6.7124002234  MEMB      143             0.0000000000
     17767       143  PMPE      H17S           26.7669678815       -7.8965334326       -5.9596653666  MEMB      143             0.0000000000
     17768       143  PMPE      C210           24.9578796900       -8.5135056442       -7.0459630450  MEMB      143             0.0000000000
     17769       143  PMPE      H10R           23.9360961642       -8.3196590025       -7.3897402337  MEMB      143             0.0000000000
     17770       143  PMPE      C211           24.9620093962       -9.4390152284       -6.0495840212  MEMB      143             0.0000000000
     17771       143  PMPE      H11R           26.0280780129       -9.7640976574       -5.9082093237  MEMB      143             0.0000000000
     17772       143  PMPE      H11S           24.4617122374      -10.2355437595       -6.5761000004  MEMB      143             0.0000000000
     17773       143  PMPE      C212           23.6751238586       -9.7885402105       -5.3490716971  MEMB      143             0.0000000000
     17774       143  PMPE      H12R           23.8971979965      -10.4833800927       -4.5298361852  MEMB      143             0.0000000000
     17775       143  PMPE      H12S           22.8127240444      -10.2312183136       -5.9478519676  MEMB      143             0.0000000000
     17776       143  PMPE      C213           23.3684976836       -9.0644422129       -4.1957179955  MEMB      143             0.0000000000
     17777       143  PMPE      H13R           22.3546839093       -9.5329322385       -4.0108393765  MEMB      143             0.0000000000
     17778       143  PMPE      H13S           23.3596462365       -8.1654228027       -4.8057863221  MEMB      143             0.0000000000
     17779       143  PMPE      C214           24.5025064865       -9.1976422239       -3.1167792963  MEMB      143             0.0000000000
     17780       143  PMPE      H14R           25.5197872923       -9.0418253874       -3.5219354351  MEMB      143             0.0000000000
     17781       143  PMPE      H14S           24.6201963828      -10.1891590421       -2.6013439397  MEMB      143             0.0000000000
     17782       143  PMPE      C215           24.1132401359       -8.1757103485       -2.1205602089  MEMB      143             0.0000000000
     17783       143  PMPE      H15R           23.0273242570       -8.1322200925       -2.1515921348  MEMB      143             0.0000000000
     17784       143  PMPE      H15S           24.1676061635       -7.1753157935       -2.5289805792  MEMB      143             0.0000000000
     17785       143  PMPE      C216           24.6635573737       -8.4439411016       -0.7185048019  MEMB      143             0.0000000000
     17786       143  PMPE      H16R           25.6947560722       -8.0969571453       -0.5867047543  MEMB      143             0.0000000000
     17787       143  PMPE      H16S           23.9713023317       -7.9829691669        0.0197443791  MEMB      143             0.0000000000
     17788       143  PMPE      H16T           24.6599045637       -9.5397275302       -0.5066732787  MEMB      143             0.0000000000
     17789       143  PMPE      C33            31.0503960256       -8.1922599241      -11.6081784327  MEMB      143             0.0000000000
     17790       143  PMPE      H3X            30.4338740190       -9.0187938798      -11.9496360794  MEMB      143             0.0000000000
     17791       143  PMPE      H3Y            30.3275171493       -7.6660086582      -12.0304908648  MEMB      143             0.0000000000
     17792       143  PMPE      C34            30.8375082714       -7.6378274271      -10.2394693223  MEMB      143             0.0000000000
     17793       143  PMPE      H4X            29.8355648539       -7.9160429144       -9.8582816083  MEMB      143             0.0000000000
     17794       143  PMPE      H4Y            31.0795427837       -6.5654092013      -10.1839574172  MEMB      143             0.0000000000
     17795       143  PMPE      C35            31.6042130554       -8.3259086651       -9.3696835408  MEMB      143             0.0000000000
     17796       143  PMPE      H5X            32.4909801984       -7.7232852636       -9.6120792638  MEMB      143             0.0000000000
     17797       143  PMPE      H5Y            31.4535861935       -9.3082414100       -9.8900578484  MEMB      143             0.0000000000
     17798       143  PMPE      C36            31.0794476542       -8.3244421656       -7.9882554029  MEMB      143             0.0000000000
     17799       143  PMPE      H6X            30.0083020080       -8.5264256549       -7.8823189253  MEMB      143             0.0000000000
     17800       143  PMPE      H6Y            31.4126088208       -7.3751533188       -7.6046340564  MEMB      143             0.0000000000
     17801       143  PMPE      C37            31.7734606839       -9.2263776155       -7.0898437674  MEMB      143             0.0000000000
     17802       143  PMPE      H7X            32.8020770616       -8.8438659334       -7.2585409184  MEMB      143             0.0000000000
     17803       143  PMPE      H7Y            31.5639124082      -10.2701128696       -7.3766723620  MEMB      143             0.0000000000
     17804       143  PMPE      C38            31.5688548711       -8.9890989728       -5.6529541186  MEMB      143             0.0000000000
     17805       143  PMPE      H8X            32.2199570126       -8.1059518724       -5.4685287950  MEMB      143             0.0000000000
     17806       143  PMPE      H8Y            31.9918645259       -9.9135451036       -5.2080283407  MEMB      143             0.0000000000
     17807       143  PMPE      C39            30.1303902483       -8.7246529153       -5.2293412605  MEMB      143             0.0000000000
     17808       143  PMPE      H9X            29.4754930668       -9.4463578931       -5.7482293957  MEMB      143             0.0000000000
     17809       143  PMPE      H9Y            29.8324938628       -7.6948878111       -5.4824606666  MEMB      143             0.0000000000
     17810       143  PMPE      C310           29.9567710283       -8.8871743563       -3.7389479038  MEMB      143             0.0000000000
     17811       143  PMPE      H10X           30.6822745231       -8.1905954212       -3.2424654497  MEMB      143             0.0000000000
     17812       143  PMPE      H10Y           30.1381411443       -9.9735406759       -3.5553025186  MEMB      143             0.0000000000
     17813       143  PMPE      C311           28.6146028122       -8.7436790569       -3.0998445143  MEMB      143             0.0000000000
     17814       143  PMPE      H11X           28.0191906297       -9.6556231266       -3.2728649553  MEMB      143             0.0000000000
     17815       143  PMPE      H11Y           28.1366352822       -7.9583201517       -3.6512480810  MEMB      143             0.0000000000
     17816       143  PMPE      C312           28.6464499959       -8.2573786362       -1.6516278750  MEMB      143             0.0000000000
     17817       143  PMPE      H12X           27.6185180988       -8.2798854592       -1.2291583350  MEMB      143             0.0000000000
     17818       143  PMPE      H12Y           29.0491618045       -7.2272546025       -1.6728299631  MEMB      143             0.0000000000
     17819       143  PMPE      C313           29.5969319751       -8.8987097261       -0.6824953625  MEMB      143             0.0000000000
     17820       143  PMPE      H13X           30.5854732570       -8.3955309346       -0.6898907236  MEMB      143             0.0000000000
     17821       143  PMPE      H13Y           29.8226335467       -9.8682949531       -1.1509501523  MEMB      143             0.0000000000
     17822       143  PMPE      C314           28.9781399887       -8.8892311906        0.7451223692  MEMB      143             0.0000000000
     17823       143  PMPE      H14X           27.9608536434       -9.3405849620        0.8293567091  MEMB      143             0.0000000000
     17824       143  PMPE      H14Y           29.1664466670       -7.9849881629        1.3008920983  MEMB      143             0.0000000000
     17825       143  PMPE      C315           29.7053108378       -9.3642809593        1.9261401526  MEMB      143             0.0000000000
     17826       143  PMPE      H15X           29.0916953812       -9.6958952020        2.7970010397  MEMB      143             0.0000000000
     17827       143  PMPE      H15Y           30.7936290272       -9.4753165668        1.9950989885  MEMB      143             0.0000000000
     17828       143  PMPE      C316           29.9768545225      -10.4433295106        1.3692987888  MEMB      143             0.0000000000
     17829       143  PMPE      H16X           29.1553327891      -11.1738794706        1.6266503696  MEMB      143             0.0000000000
     17830       143  PMPE      H16Y           29.9909139229      -11.3282819623        1.8714190629  MEMB      143             0.0000000000
     17831       143  PMPE      H16Z           30.6769556603      -10.5121924668        0.4743175770  MEMB      143             0.0000000000
     17832       144  QMPE      N              24.6330971947       16.2148489429      -21.1132914252  MEMB      144             0.0000000000
     17833       144  QMPE      HN1            24.8424908356       16.3741677049      -22.1140289262  MEMB      144             0.0000000000
     17834       144  QMPE      HN2            23.9698075349       15.4235405676      -20.9986866179  MEMB      144             0.0000000000
     17835       144  QMPE      HN3            24.2073224697       17.0794525446      -20.6915709090  MEMB      144             0.0000000000
     17836       144  QMPE      C12            25.9577396242       15.9888632628      -20.4387753686  MEMB      144             0.0000000000
     17837       144  QMPE      H12A           26.6920141786       16.5559322819      -21.0480784427  MEMB      144             0.0000000000
     17838       144  QMPE      H12B           26.2144366829       14.9139422221      -20.4824051163  MEMB      144             0.0000000000
     17839       144  QMPE      C11            25.9693328358       16.5431614073      -19.0084521703  MEMB      144             0.0000000000
     17840       144  QMPE      H11A           27.0103304386       16.4780862176      -18.6123965136  MEMB      144             0.0000000000
     17841       144  QMPE      H11B           25.3266139777       15.9326142595      -18.3383007427  MEMB      144             0.0000000000
     17842       144  QMPE      P              24.4781945940       18.7386856997      -18.3317213506  MEMB      144             0.0000000000
     17843       144  QMPE      O13            23.2434181714       18.3049196878      -18.9964625566  MEMB      144             0.0000000000
     17844       144  QMPE      O14            24.8741540199       20.1544239644      -18.4491556899  MEMB      144             0.0000000000
     17845       144  QMPE      O11            24.5255096452       18.2488542915      -16.8185030004  MEMB      144             0.0000000000
     17846       144  QMPE      O12            25.6094004947       17.9051505557      -19.0516036598  MEMB      144             0.0000000000
     17847       144  QMPE      C1             23.3276214888       18.3422588916      -16.0274622914  MEMB      144             0.0000000000
     17848       144  QMPE      HA             23.3535593694       17.6278964222      -15.2119524555  MEMB      144             0.0000000000
     17849       144  QMPE      HB             22.4122566531       18.1052420256      -16.5895995671  MEMB      144             0.0000000000
     17850       144  QMPE      C2             23.1431100835       19.6388068909      -15.2606374725  MEMB      144             0.0000000000
     17851       144  QMPE      HS             22.6257303337       20.3013294246      -16.0013670635  MEMB      144             0.0000000000
     17852       144  QMPE      O21            24.4597711946       20.0765793442      -14.9189857132  MEMB      144             0.0000000000
     17853       144  QMPE      C21            24.3312510581       21.2761728088      -14.5999085893  MEMB      144             0.0000000000
     17854       144  QMPE      O22            23.3707485681       21.9662736935      -14.8225063718  MEMB      144             0.0000000000
     17855       144  QMPE      C22            25.4364528974       21.5632865291      -13.7429413279  MEMB      144             0.0000000000
     17856       144  QMPE      H2R            26.2774862958       21.9021594512      -14.4417123258  MEMB      144             0.0000000000
     17857       144  QMPE      H2S            25.7570918435       20.7159752901      -13.1113372613  MEMB      144             0.0000000000
     17858       144  QMPE      C3             22.2884114802       19.4804702322      -13.9474327435  MEMB      144             0.0000000000
     17859       144  QMPE      HX             21.3929178658       18.8749286709      -14.1981424986  MEMB      144             0.0000000000
     17860       144  QMPE      HY             21.9032818612       20.4727540530      -13.6191170298  MEMB      144             0.0000000000
     17861       144  QMPE      O31            23.0829447748       18.8231262011      -12.9243754017  MEMB      144             0.0000000000
     17862       144  QMPE      C31            23.2041614563       19.4233937294      -11.7479790153  MEMB      144             0.0000000000
     17863       144  QMPE      O32            22.5893281063       20.3987879519      -11.3840230296  MEMB      144             0.0000000000
     17864       144  QMPE      C32            24.1914817387       18.6611173708      -10.8738191894  MEMB      144             0.0000000000
     17865       144  QMPE      H2X            23.7470495626       17.6663636664      -10.6979847756  MEMB      144             0.0000000000
     17866       144  QMPE      H2Y            25.1353487617       18.5468146503      -11.4470730775  MEMB      144             0.0000000000
     17867       144  QMPE      C23            24.9543197613       22.6157133940      -12.7786677464  MEMB      144             0.0000000000
     17868       144  QMPE      H3R            24.8363658758       23.5827755480      -13.0693271935  MEMB      144             0.0000000000
     17869       144  QMPE      H3S            26.0072598278       22.4837325559      -12.7374820501  MEMB      144             0.0000000000
     17870       144  QMPE      C24            24.4395551987       22.7496581307      -11.3327870318  MEMB      144             0.0000000000
     17871       144  QMPE      H4R            24.5939564737       21.9297945751      -10.7247388318  MEMB      144             0.0000000000
     17872       144  QMPE      H4S            23.5439534481       22.3664601734      -11.7860972012  MEMB      144             0.0000000000
     17873       144  QMPE      C25            24.4757977249       24.1559009329      -10.4017282865  MEMB      144             0.0000000000
     17874       144  QMPE      H5R            24.2816123601       25.1293372365      -10.8823433576  MEMB      144             0.0000000000
     17875       144  QMPE      H5S            25.2175396096       24.9121939848      -10.1231305181  MEMB      144             0.0000000000
     17876       144  QMPE      C26            23.6532809013       24.1106637867       -9.1836376841  MEMB      144             0.0000000000
     17877       144  QMPE      H6R            22.7140831262       23.6135953216       -9.1310851085  MEMB      144             0.0000000000
     17878       144  QMPE      H6S            23.3228705091       25.1176967081       -9.1888907051  MEMB      144             0.0000000000
     17879       144  QMPE      C27            23.9603841832       23.1034777870       -8.1991565732  MEMB      144             0.0000000000
     17880       144  QMPE      H7R            24.8310778784       23.5183492438       -7.7155444138  MEMB      144             0.0000000000
     17881       144  QMPE      H7S            23.9157830384       22.1617055734       -8.8077200125  MEMB      144             0.0000000000
     17882       144  QMPE      C28            23.0544999367       22.6300542677       -7.1832810519  MEMB      144             0.0000000000
     17883       144  QMPE      H8R            23.5771127186       21.8300693256       -6.6579695957  MEMB      144             0.0000000000
     17884       144  QMPE      H8S            22.1674638008       22.2360239913       -7.7439902570  MEMB      144             0.0000000000
     17885       144  QMPE      C29            22.8763307383       23.8205652182       -6.3491155949  MEMB      144             0.0000000000
     17886       144  QMPE      H9R            22.6904632470       24.7402758362       -6.8296362421  MEMB      144             0.0000000000
     17887       144  QMPE      C217           23.6030417234       24.0855413722       -5.1268531888  MEMB      144             0.0000000000
     17888       144  QMPE      H17R           24.4502131186       23.4601746701       -5.0717648606  MEMB      144             0.0000000000
     17889       144  QMPE      H17S           23.5290683589       25.1438958290       -5.1369041215  MEMB      144             0.0000000000
     17890       144  QMPE      C210           22.1760388184       23.6208297645       -5.0905621067  MEMB      144             0.0000000000
     17891       144  QMPE      H10R           21.8591822021       24.4509792108       -4.4513410728  MEMB      144             0.0000000000
     17892       144  QMPE      C211           22.0345243742       22.2214055179       -4.6079480214  MEMB      144             0.0000000000
     17893       144  QMPE      H11R           22.1159757555       21.4564072430       -5.3930422435  MEMB      144             0.0000000000
     17894       144  QMPE      H11S           22.7898908245       22.1393676581       -3.8032217818  MEMB      144             0.0000000000
     17895       144  QMPE      C212           20.6710426256       22.0168485221       -4.0400593796  MEMB      144             0.0000000000
     17896       144  QMPE      H12R           19.8386444375       21.9522365086       -4.7755910980  MEMB      144             0.0000000000
     17897       144  QMPE      H12S           20.6262910017       22.9000491180       -3.3582599699  MEMB      144             0.0000000000
     17898       144  QMPE      C213           20.4007932210       20.7148347013       -3.3761035101  MEMB      144             0.0000000000
     17899       144  QMPE      H13R           21.0794049181       19.9396219421       -3.7537244238  MEMB      144             0.0000000000
     17900       144  QMPE      H13S           19.3811915228       20.4114918788       -3.4056506823  MEMB      144             0.0000000000
     17901       144  QMPE      C214           20.4634263055       20.8377921044       -1.9373959188  MEMB      144             0.0000000000
     17902       144  QMPE      H14R           19.7747172585       21.5027227773       -1.3717002336  MEMB      144             0.0000000000
     17903       144  QMPE      H14S           21.2862497644       21.5858373450       -2.0216096725  MEMB      144             0.0000000000
     17904       144  QMPE      C215           20.5662121261       19.3933522445       -1.2662751327  MEMB      144             0.0000000000
     17905       144  QMPE      H15R           19.6260602953       18.9242350841       -1.0124537364  MEMB      144             0.0000000000
     17906       144  QMPE      H15S           20.6105031327       19.5840793105       -0.2462075187  MEMB      144             0.0000000000
     17907       144  QMPE      C216           21.6821912499       18.3093827348       -1.4145515092  MEMB      144             0.0000000000
     17908       144  QMPE      H16R           21.3443918580       17.4409828168       -1.9832809984  MEMB      144             0.0000000000
     17909       144  QMPE      H16S           22.0302772891       17.9863944741       -0.3939473746  MEMB      144             0.0000000000
     17910       144  QMPE      H16T           22.6143831578       18.6422659085       -1.8939486037  MEMB      144             0.0000000000
     17911       144  QMPE      C33            24.4706796659       19.3346976351       -9.5096078866  MEMB      144             0.0000000000
     17912       144  QMPE      H3X            23.5613033023       19.6352519581       -8.9455723591  MEMB      144             0.0000000000
     17913       144  QMPE      H3Y            25.0317094548       20.2343794612       -9.7441562652  MEMB      144             0.0000000000
     17914       144  QMPE      C34            25.3555002957       18.4634306136       -8.6174527019  MEMB      144             0.0000000000
     17915       144  QMPE      H4X            26.3669960277       18.4302671236       -9.0904641944  MEMB      144             0.0000000000
     17916       144  QMPE      H4Y            24.9069303066       17.4529714352       -8.6058463593  MEMB      144             0.0000000000
     17917       144  QMPE      C35            25.5335582976       18.9363970827       -7.1660396054  MEMB      144             0.0000000000
     17918       144  QMPE      H5X            25.4210705543       20.0068075950       -7.1360976565  MEMB      144             0.0000000000
     17919       144  QMPE      H5Y            26.5394694019       18.6152834799       -6.8147117253  MEMB      144             0.0000000000
     17920       144  QMPE      C36            24.4061511174       18.6081903171       -6.2007222699  MEMB      144             0.0000000000
     17921       144  QMPE      H6X            24.2963441563       17.5122997546       -6.2498882448  MEMB      144             0.0000000000
     17922       144  QMPE      H6Y            23.4750013273       19.0962282892       -6.5875349424  MEMB      144             0.0000000000
     17923       144  QMPE      C37            24.5133468833       19.1209958335       -4.7406244992  MEMB      144             0.0000000000
     17924       144  QMPE      H7X            24.2083678769       20.1935767474       -4.6901106502  MEMB      144             0.0000000000
     17925       144  QMPE      H7Y            23.7316939051       18.5421536077       -4.2024498676  MEMB      144             0.0000000000
     17926       144  QMPE      C38            25.8121938377       18.9033705305       -3.9308997251  MEMB      144             0.0000000000
     17927       144  QMPE      H8X            26.0863855704       17.8296540541       -3.9513456942  MEMB      144             0.0000000000
     17928       144  QMPE      H8Y            26.6521998694       19.4860439159       -4.3613463853  MEMB      144             0.0000000000
     17929       144  QMPE      C39            25.6201600920       19.2820118034       -2.4438782823  MEMB      144             0.0000000000
     17930       144  QMPE      H9X            24.9702972568       18.5388213440       -1.9505950753  MEMB      144             0.0000000000
     17931       144  QMPE      H9Y            25.1253534580       20.2799497159       -2.4357845555  MEMB      144             0.0000000000
     17932       144  QMPE      C310           26.8903894983       19.3524368190       -1.5897979129  MEMB      144             0.0000000000
     17933       144  QMPE      H10X           27.2746512919       20.3007552795       -1.8559643452  MEMB      144             0.0000000000
     17934       144  QMPE      H10Y           27.6377144218       18.5551342733       -1.7613785223  MEMB      144             0.0000000000
     17935       144  QMPE      C311           26.8890717491       19.9237332980       -0.1770250635  MEMB      144             0.0000000000
     17936       144  QMPE      H11X           27.9010357404       20.0726432001        0.2192735233  MEMB      144             0.0000000000
     17937       144  QMPE      H11Y           26.3942432375       19.1610744339        0.4050122516  MEMB      144             0.0000000000
     17938       144  QMPE      C312           26.2120366806       21.2806222641       -0.0084773664  MEMB      144             0.0000000000
     17939       144  QMPE      H12X           25.9191654563       21.4452625432        1.0431664767  MEMB      144             0.0000000000
     17940       144  QMPE      H12Y           25.3908630336       21.1130467003       -0.7177030578  MEMB      144             0.0000000000
     17941       144  QMPE      C313           26.7088447973       22.5805937491       -0.6001990563  MEMB      144             0.0000000000
     17942       144  QMPE      H13X           27.6389683094       22.9221833145       -0.1275297445  MEMB      144             0.0000000000
     17943       144  QMPE      H13Y           26.7878398325       22.1640051511       -1.5980414415  MEMB      144             0.0000000000
     17944       144  QMPE      C314           25.9675787929       23.8802364409       -0.6282469391  MEMB      144             0.0000000000
     17945       144  QMPE      H14X           26.5660181671       24.6727164869       -1.1105985719  MEMB      144             0.0000000000
     17946       144  QMPE      H14Y           25.8198405761       24.1168747672        0.4595668433  MEMB      144             0.0000000000
     17947       144  QMPE      C315           24.7310715278       23.8390210384       -1.4417711424  MEMB      144             0.0000000000
     17948       144  QMPE      H15X           24.0087975802       24.6058794137       -1.6910440258  MEMB      144             0.0000000000
     17949       144  QMPE      H15Y           24.5157643344       22.9472866595       -2.0611880593  MEMB      144             0.0000000000
     17950       144  QMPE      H15Z           24.1572841534       23.9581316936       -0.5385120839  MEMB      144             0.0000000000
     17951       145  QMPE      N               4.3678180179      -31.4346526249      -22.0818504212  MEMB      145             0.0000000000
     17952       145  QMPE      HN1             3.6385195644      -30.7890211535      -21.7005253892  MEMB      145             0.0000000000
     17953       145  QMPE      HN2             4.6011080722      -31.1768789073      -23.0697578265  MEMB      145             0.0000000000
     17954       145  QMPE      HN3             3.9996918989      -32.4050288441      -22.1497038258  MEMB      145             0.0000000000
     17955       145  QMPE      C12             5.6064052608      -31.3366381058      -21.2020956692  MEMB      145             0.0000000000
     17956       145  QMPE      H12A            6.1252050721      -30.3954137093      -21.4784492288  MEMB      145             0.0000000000
     17957       145  QMPE      H12B            6.2455380768      -32.2068873512      -21.4382245155  MEMB      145             0.0000000000
     17958       145  QMPE      C11             5.3728572215      -31.2787251028      -19.6801002349  MEMB      145             0.0000000000
     17959       145  QMPE      H11A            6.3642777690      -31.4479918897      -19.1802296331  MEMB      145             0.0000000000
     17960       145  QMPE      H11B            4.6761066898      -32.0697998022      -19.3276673544  MEMB      145             0.0000000000
     17961       145  QMPE      P               5.1595569220      -29.4498610735      -17.8467103047  MEMB      145             0.0000000000
     17962       145  QMPE      O13             4.1918257311      -28.3624957375      -17.5728622163  MEMB      145             0.0000000000
     17963       145  QMPE      O14             6.5963794339      -29.2452793090      -17.6091001822  MEMB      145             0.0000000000
     17964       145  QMPE      O11             4.8537973797      -30.7874516680      -17.1075414776  MEMB      145             0.0000000000
     17965       145  QMPE      O12             4.8795042675      -29.9920173424      -19.3343063634  MEMB      145             0.0000000000
     17966       145  QMPE      C1              3.5478133094      -31.1021958722      -16.7956539660  MEMB      145             0.0000000000
     17967       145  QMPE      HA              3.2602597734      -32.0938014064      -17.2217106526  MEMB      145             0.0000000000
     17968       145  QMPE      HB              2.7953420239      -30.3794676384      -17.1869341933  MEMB      145             0.0000000000
     17969       145  QMPE      C2              3.4799804401      -31.2047265025      -15.2925034533  MEMB      145             0.0000000000
     17970       145  QMPE      HS              2.6231826222      -31.7830362508      -15.2401231454  MEMB      145             0.0000000000
     17971       145  QMPE      O21             3.4166832360      -29.9699934993      -14.6178136216  MEMB      145             0.0000000000
     17972       145  QMPE      C21             2.4852444639      -29.1316479844      -14.7627710362  MEMB      145             0.0000000000
     17973       145  QMPE      O22             1.3005650955      -29.1865180466      -14.9762828922  MEMB      145             0.0000000000
     17974       145  QMPE      C22             2.9257874653      -27.8685001835      -14.3252249720  MEMB      145             0.0000000000
     17975       145  QMPE      H2R             1.9608864739      -27.7296350552      -13.7721189549  MEMB      145             0.0000000000
     17976       145  QMPE      H2S             3.0175540978      -27.2784937290      -15.2773287307  MEMB      145             0.0000000000
     17977       145  QMPE      C3              4.5791031262      -31.9863249262      -14.5737633440  MEMB      145             0.0000000000
     17978       145  QMPE      HX              5.5573285422      -31.5721251970      -14.8306252995  MEMB      145             0.0000000000
     17979       145  QMPE      HY              4.4931457384      -33.0220818682      -14.9913823465  MEMB      145             0.0000000000
     17980       145  QMPE      O31             4.4441753383      -31.8815670414      -13.1321378624  MEMB      145             0.0000000000
     17981       145  QMPE      C31             3.5540507566      -32.7149418129      -12.6968531892  MEMB      145             0.0000000000
     17982       145  QMPE      O32             3.0269261280      -33.5748619986      -13.3604700336  MEMB      145             0.0000000000
     17983       145  QMPE      C32             3.3748950763      -32.5900531483      -11.2425348358  MEMB      145             0.0000000000
     17984       145  QMPE      H2X             3.1201672836      -33.5923025022      -10.7487994257  MEMB      145             0.0000000000
     17985       145  QMPE      H2Y             4.3166396903      -32.1645307815      -10.8486547967  MEMB      145             0.0000000000
     17986       145  QMPE      C23             4.1162274463      -27.7254143886      -13.3838895018  MEMB      145             0.0000000000
     17987       145  QMPE      H3R             4.4055999897      -26.6662415712      -13.2947573878  MEMB      145             0.0000000000
     17988       145  QMPE      H3S             4.9385937646      -28.1845745958      -13.9440448459  MEMB      145             0.0000000000
     17989       145  QMPE      C24             4.1233007209      -28.3110975671      -11.9508067696  MEMB      145             0.0000000000
     17990       145  QMPE      H4R             5.0977356783      -27.9860608458      -11.5488589198  MEMB      145             0.0000000000
     17991       145  QMPE      H4S             3.9638770133      -29.3903529324      -11.9760399614  MEMB      145             0.0000000000
     17992       145  QMPE      C25             3.2174743147      -27.7393305758      -10.8966529530  MEMB      145             0.0000000000
     17993       145  QMPE      H5R             2.2611175298      -28.2885372066      -11.0454680049  MEMB      145             0.0000000000
     17994       145  QMPE      H5S             3.2904258954      -26.7879068909      -11.3832724982  MEMB      145             0.0000000000
     17995       145  QMPE      C26             3.7415991203      -27.1232283356       -9.5487503521  MEMB      145             0.0000000000
     17996       145  QMPE      H6R             4.3612816554      -26.2411810126       -9.8593311908  MEMB      145             0.0000000000
     17997       145  QMPE      H6S             4.2285833743      -28.0082608520       -9.1457920234  MEMB      145             0.0000000000
     17998       145  QMPE      C27             2.8481011823      -26.4075585421       -8.5053989344  MEMB      145             0.0000000000
     17999       145  QMPE      H7R             2.1997520503      -27.1961398784       -8.2414111879  MEMB      145             0.0000000000
     18000       145  QMPE      H7S             2.4283495422      -25.4770245079       -8.8596951146  MEMB      145             0.0000000000
     18001       145  QMPE      C28             2.8880331670      -26.2746387666       -7.0005332828  MEMB      145             0.0000000000
     18002       145  QMPE      H8R             3.1793126935      -27.2557262000       -6.5740025122  MEMB      145             0.0000000000
     18003       145  QMPE      H8S             1.8718472752      -25.9895488596       -6.6033166536  MEMB      145             0.0000000000
     18004       145  QMPE      C29             3.7562719986      -25.1147756451       -6.8388103390  MEMB      145             0.0000000000
     18005       145  QMPE      H9R             3.6322520215      -24.2392825380       -7.5040715648  MEMB      145             0.0000000000
     18006       145  QMPE      C217            5.1762045931      -25.5966821223       -6.6522293885  MEMB      145             0.0000000000
     18007       145  QMPE      H17R            5.1943175561      -26.6762944525       -6.6126641293  MEMB      145             0.0000000000
     18008       145  QMPE      H17S            5.8190138133      -25.0214497068       -7.2807466300  MEMB      145             0.0000000000
     18009       145  QMPE      C210            4.4321365407      -24.8492620047       -5.5544020005  MEMB      145             0.0000000000
     18010       145  QMPE      H10R            4.4807729964      -23.7717584808       -5.4203730510  MEMB      145             0.0000000000
     18011       145  QMPE      C211            4.0407422191      -25.6190935031       -4.3532919856  MEMB      145             0.0000000000
     18012       145  QMPE      H11R            4.0336530351      -26.6735524010       -4.7120820670  MEMB      145             0.0000000000
     18013       145  QMPE      H11S            4.8021268230      -25.6292637704       -3.5696815633  MEMB      145             0.0000000000
     18014       145  QMPE      C212            2.7997230771      -24.9684978885       -3.6962910100  MEMB      145             0.0000000000
     18015       145  QMPE      H12R            1.9746419550      -25.2399549739       -4.4103061833  MEMB      145             0.0000000000
     18016       145  QMPE      H12S            2.8354668300      -23.8872217555       -3.5533792066  MEMB      145             0.0000000000
     18017       145  QMPE      C213            2.5384239181      -25.3802261325       -2.2521006116  MEMB      145             0.0000000000
     18018       145  QMPE      H13R            1.4050266036      -25.1905434140       -2.2071709236  MEMB      145             0.0000000000
     18019       145  QMPE      H13S            2.8624765418      -25.0754877362       -1.2658883149  MEMB      145             0.0000000000
     18020       145  QMPE      C214            3.1076007576      -26.8571184975       -2.2694752719  MEMB      145             0.0000000000
     18021       145  QMPE      H14R            2.8964833351      -27.0196643401       -1.2137859755  MEMB      145             0.0000000000
     18022       145  QMPE      H14S            3.7937706769      -27.5241636992       -1.8347117512  MEMB      145             0.0000000000
     18023       145  QMPE      C215            2.5337738449      -27.7668234496       -3.3746114373  MEMB      145             0.0000000000
     18024       145  QMPE      H15R            2.4506151024      -27.3275361206       -4.3123353813  MEMB      145             0.0000000000
     18025       145  QMPE      H15S            1.7560623039      -26.9505326828       -2.8878935070  MEMB      145             0.0000000000
     18026       145  QMPE      C216            1.8877254114      -29.4806374220       -3.5500383798  MEMB      145             0.0000000000
     18027       145  QMPE      H16R            2.5352976846      -30.2105355656       -3.4356737157  MEMB      145             0.0000000000
     18028       145  QMPE      H16S            1.0244937477      -29.7116519786       -4.2380240767  MEMB      145             0.0000000000
     18029       145  QMPE      H16T            0.8485211755      -29.8941716677       -2.9658013720  MEMB      145             0.0000000000
     18030       145  QMPE      C33             2.6124953545      -31.5482513642      -10.7969803994  MEMB      145             0.0000000000
     18031       145  QMPE      H3X             1.6453738755      -31.7691825578      -11.1610323603  MEMB      145             0.0000000000
     18032       145  QMPE      H3Y             2.7774521321      -30.5459474795      -11.1356449951  MEMB      145             0.0000000000
     18033       145  QMPE      C34             2.7067136292      -31.7643346621       -9.3808954342  MEMB      145             0.0000000000
     18034       145  QMPE      H4X             2.3550520908      -32.7001086621       -8.9047511242  MEMB      145             0.0000000000
     18035       145  QMPE      H4Y             1.7640207103      -31.2359773612       -9.4976510074  MEMB      145             0.0000000000
     18036       145  QMPE      C35             3.8156704774      -31.0734730843       -8.5393629741  MEMB      145             0.0000000000
     18037       145  QMPE      H5X             4.2315530547      -30.2149591936       -9.0808552950  MEMB      145             0.0000000000
     18038       145  QMPE      H5Y             4.3276548140      -32.0317841766       -8.4980341842  MEMB      145             0.0000000000
     18039       145  QMPE      C36             3.7497328638      -30.8188005371       -7.0216823044  MEMB      145             0.0000000000
     18040       145  QMPE      H6X             3.4235132837      -31.8401295441       -6.6698218098  MEMB      145             0.0000000000
     18041       145  QMPE      H6Y             3.1400483055      -29.9111191504       -6.8767977850  MEMB      145             0.0000000000
     18042       145  QMPE      C37             4.6870223831      -30.6000231787       -5.8984719632  MEMB      145             0.0000000000
     18043       145  QMPE      H7X             4.2080321398      -30.6404510321       -4.9075227338  MEMB      145             0.0000000000
     18044       145  QMPE      H7Y             5.0659461984      -31.6403083090       -5.8914082036  MEMB      145             0.0000000000
     18045       145  QMPE      C38             5.4528232549      -29.2728926376       -6.1613781276  MEMB      145             0.0000000000
     18046       145  QMPE      H8X             5.7168133580      -29.1200904084       -7.2358897856  MEMB      145             0.0000000000
     18047       145  QMPE      H8Y             4.6773585916      -28.5071190037       -6.0523984503  MEMB      145             0.0000000000
     18048       145  QMPE      C39             6.7365679646      -28.9571618477       -5.3581538711  MEMB      145             0.0000000000
     18049       145  QMPE      H9X             7.3465806133      -28.2145710272       -5.8960273647  MEMB      145             0.0000000000
     18050       145  QMPE      H9Y             7.5735141415      -29.6451216579       -5.1769372228  MEMB      145             0.0000000000
     18051       145  QMPE      C310            6.3925422758      -28.6729866912       -3.9518576033  MEMB      145             0.0000000000
     18052       145  QMPE      H10X            5.4092829628      -29.1026579979       -3.6384367641  MEMB      145             0.0000000000
     18053       145  QMPE      H10Y            6.3509408399      -27.5688347495       -3.9847221000  MEMB      145             0.0000000000
     18054       145  QMPE      C311            7.4040624975      -29.1544658453       -2.9356591889  MEMB      145             0.0000000000
     18055       145  QMPE      H11X            8.3397468550      -28.5598308325       -3.0545303444  MEMB      145             0.0000000000
     18056       145  QMPE      H11Y            7.7010096799      -30.2169530609       -2.9695964694  MEMB      145             0.0000000000
     18057       145  QMPE      C312            6.7020330038      -28.9395306640       -1.6261329886  MEMB      145             0.0000000000
     18058       145  QMPE      H12X            7.3063134793      -29.5284171569       -0.9008991049  MEMB      145             0.0000000000
     18059       145  QMPE      H12Y            5.7252313214      -29.4124964611       -1.4768086144  MEMB      145             0.0000000000
     18060       145  QMPE      C313            6.3725267648      -27.4361104759       -1.4937291705  MEMB      145             0.0000000000
     18061       145  QMPE      H13X            7.2448059513      -26.7445590123       -1.5209124202  MEMB      145             0.0000000000
     18062       145  QMPE      H13Y            5.7375454281      -27.0736766656       -2.3028768770  MEMB      145             0.0000000000
     18063       145  QMPE      C314            5.4446672511      -27.1293234086       -0.3647025665  MEMB      145             0.0000000000
     18064       145  QMPE      H14X            4.9626248734      -28.0785179385        0.0212395676  MEMB      145             0.0000000000
     18065       145  QMPE      H14Y            4.7799055807      -26.2821099246       -0.5747289869  MEMB      145             0.0000000000
     18066       145  QMPE      C315            6.1670710227      -26.5168134037        0.6623517100  MEMB      145             0.0000000000
     18067       145  QMPE      H15X            7.1002562724      -26.3185167646        0.2744947007  MEMB      145             0.0000000000
     18068       145  QMPE      H15Y            6.1330884117      -25.5683136596        1.2183524638  MEMB      145             0.0000000000
     18069       145  QMPE      H15Z            5.9829416043      -27.3215850287        1.3918776809  MEMB      145             0.0000000000
     18070       146  PMPE      N               9.9426243235       30.1795196057      -18.0183817928  MEMB      146             0.0000000000
     18071       146  PMPE      HN1             9.9741650652       30.1388546757      -16.9794569152  MEMB      146             0.0000000000
     18072       146  PMPE      HN2             9.1305327943       30.7804465731      -18.2884699675  MEMB      146             0.0000000000
     18073       146  PMPE      HN3             9.7736294483       29.2266618740      -18.4067077956  MEMB      146             0.0000000000
     18074       146  PMPE      C12            11.2310356803       30.7224417268      -18.5819921694  MEMB      146             0.0000000000
     18075       146  PMPE      H12A           11.5085362217       31.6262562306      -18.0008958143  MEMB      146             0.0000000000
     18076       146  PMPE      H12B           11.0653062553       30.9849265228      -19.6488638183  MEMB      146             0.0000000000
     18077       146  PMPE      C11            12.3299649298       29.6680537714      -18.4671175428  MEMB      146             0.0000000000
     18078       146  PMPE      H11A           12.3285319145       29.2731464281      -17.4232985843  MEMB      146             0.0000000000
     18079       146  PMPE      H11B           13.3251089524       30.1413119212      -18.6619082757  MEMB      146             0.0000000000
     18080       146  PMPE      P              13.1335829403       27.3980540013      -19.4206352584  MEMB      146             0.0000000000
     18081       146  PMPE      O13            14.4955463937       27.9545026777      -19.3779595011  MEMB      146             0.0000000000
     18082       146  PMPE      O14            12.7901912792       26.4807583224      -20.5306144012  MEMB      146             0.0000000000
     18083       146  PMPE      O11            12.8121934313       26.7001378706      -18.0493366162  MEMB      146             0.0000000000
     18084       146  PMPE      O12            12.0811940989       28.6191397185      -19.4011417764  MEMB      146             0.0000000000
     18085       146  PMPE      C1             11.5078130480       26.2696042515      -17.6563062565  MEMB      146             0.0000000000
     18086       146  PMPE      HA             11.2155349485       25.3586644475      -18.2216266357  MEMB      146             0.0000000000
     18087       146  PMPE      HB             10.7395368803       27.0603798565      -17.8237004951  MEMB      146             0.0000000000
     18088       146  PMPE      C2             11.4767850083       25.9957260778      -16.1307061769  MEMB      146             0.0000000000
     18089       146  PMPE      HS             10.4214912452       25.8086814607      -15.8386039155  MEMB      146             0.0000000000
     18090       146  PMPE      O21            11.9495456649       27.1946957702      -15.5297727751  MEMB      146             0.0000000000
     18091       146  PMPE      C21            11.6307242683       27.4967053719      -14.3065702854  MEMB      146             0.0000000000
     18092       146  PMPE      O22            10.7470282365       27.0221478128      -13.6232634597  MEMB      146             0.0000000000
     18093       146  PMPE      C22            12.5668138667       28.6310440282      -13.9123726902  MEMB      146             0.0000000000
     18094       146  PMPE      H2R            12.4683122214       28.8016195990      -12.8222433735  MEMB      146             0.0000000000
     18095       146  PMPE      H2S            12.2320406390       29.5438669821      -14.4413042657  MEMB      146             0.0000000000
     18096       146  PMPE      C3             12.3709760181       24.7665412995      -15.7434841225  MEMB      146             0.0000000000
     18097       146  PMPE      HX             13.2518054054       24.7846598288      -16.4123033421  MEMB      146             0.0000000000
     18098       146  PMPE      HY             11.7836870992       23.8471710431      -16.0143452018  MEMB      146             0.0000000000
     18099       146  PMPE      O31            12.8963935531       24.7952047582      -14.3757991331  MEMB      146             0.0000000000
     18100       146  PMPE      C31            11.9779213538       24.2962888761      -13.5360491832  MEMB      146             0.0000000000
     18101       146  PMPE      O32            10.9736576626       23.7808289941      -13.9575963904  MEMB      146             0.0000000000
     18102       146  PMPE      C32            12.3485365416       24.4422708087      -12.0348332854  MEMB      146             0.0000000000
     18103       146  PMPE      H2X            12.8386557012       25.4319600798      -11.9767332553  MEMB      146             0.0000000000
     18104       146  PMPE      H2Y            13.0512511365       23.6345919355      -11.7415931290  MEMB      146             0.0000000000
     18105       146  PMPE      C23            14.0074335432       28.2417952274      -14.3420786495  MEMB      146             0.0000000000
     18106       146  PMPE      H3R            14.0355519462       27.8811892730      -15.3992033354  MEMB      146             0.0000000000
     18107       146  PMPE      H3S            14.3323130950       27.3811075304      -13.7162366702  MEMB      146             0.0000000000
     18108       146  PMPE      C24            15.0346581026       29.3742078828      -14.3401060508  MEMB      146             0.0000000000
     18109       146  PMPE      H4R            14.8152154901       30.0718552041      -15.1805000936  MEMB      146             0.0000000000
     18110       146  PMPE      H4S            16.0397056774       28.9418457016      -14.5690353963  MEMB      146             0.0000000000
     18111       146  PMPE      C25            15.0581645916       30.1877160437      -13.0430210323  MEMB      146             0.0000000000
     18112       146  PMPE      H5R            14.1134577397       30.7666791972      -12.9657548934  MEMB      146             0.0000000000
     18113       146  PMPE      H5S            15.8972784410       30.9146648970      -13.1305260716  MEMB      146             0.0000000000
     18114       146  PMPE      C26            15.2277958297       29.3526769478      -11.7654594317  MEMB      146             0.0000000000
     18115       146  PMPE      H6R            16.0278086519       28.5957923541      -11.9359247967  MEMB      146             0.0000000000
     18116       146  PMPE      H6S            14.2974182722       28.7910319694      -11.5227157592  MEMB      146             0.0000000000
     18117       146  PMPE      C27            15.5220607820       30.2219993669      -10.5404019718  MEMB      146             0.0000000000
     18118       146  PMPE      H7R            14.7009011387       30.9593089656      -10.4146796820  MEMB      146             0.0000000000
     18119       146  PMPE      H7S            16.4620911322       30.8066002516      -10.6830737315  MEMB      146             0.0000000000
     18120       146  PMPE      C28            15.4902828000       29.4075088983       -9.2397822312  MEMB      146             0.0000000000
     18121       146  PMPE      H8R            14.5731264662       28.7984538064       -9.1700505729  MEMB      146             0.0000000000
     18122       146  PMPE      H8S            15.6308218293       30.1057529713       -8.3838261517  MEMB      146             0.0000000000
     18123       146  PMPE      C29            16.6038756908       28.4500421183       -9.1657779968  MEMB      146             0.0000000000
     18124       146  PMPE      H9R            17.4815992609       28.8716497862       -9.6854938202  MEMB      146             0.0000000000
     18125       146  PMPE      C217           16.3728583776       26.9518905634       -9.3987995556  MEMB      146             0.0000000000
     18126       146  PMPE      H17R           17.2264169191       26.4373857753       -9.7901458233  MEMB      146             0.0000000000
     18127       146  PMPE      H17S           15.4112414896       26.5440879581       -9.5212743211  MEMB      146             0.0000000000
     18128       146  PMPE      C210           16.6362147369       27.4644373134       -7.9825468021  MEMB      146             0.0000000000
     18129       146  PMPE      H10R           17.4536660798       26.8538835514       -7.5964367736  MEMB      146             0.0000000000
     18130       146  PMPE      C211           15.6610690125       27.3343545903       -6.9092457850  MEMB      146             0.0000000000
     18131       146  PMPE      H11R           15.9860142609       26.4462564242       -6.2919730664  MEMB      146             0.0000000000
     18132       146  PMPE      H11S           14.7105449541       27.1611456028       -7.4258358986  MEMB      146             0.0000000000
     18133       146  PMPE      C212           15.7618675941       28.5376560566       -5.9929116763  MEMB      146             0.0000000000
     18134       146  PMPE      H12R           16.1805344492       29.4371795136       -6.4988408424  MEMB      146             0.0000000000
     18135       146  PMPE      H12S           16.4850322516       28.2844820256       -5.1792059361  MEMB      146             0.0000000000
     18136       146  PMPE      C213           14.3726049134       28.7597880745       -5.4342955118  MEMB      146             0.0000000000
     18137       146  PMPE      H13R           14.0800377738       27.7982661023       -4.9481261424  MEMB      146             0.0000000000
     18138       146  PMPE      H13S           13.6760599218       28.9708779363       -6.2728201196  MEMB      146             0.0000000000
     18139       146  PMPE      C214           14.3477095135       29.8304527299       -4.3680411324  MEMB      146             0.0000000000
     18140       146  PMPE      H14R           13.3288505132       29.8793082762       -3.9190565203  MEMB      146             0.0000000000
     18141       146  PMPE      H14S           14.5546337658       30.8000467725       -4.8553711729  MEMB      146             0.0000000000
     18142       146  PMPE      C215           15.4574406679       29.5003591332       -3.3606612807  MEMB      146             0.0000000000
     18143       146  PMPE      H15R           16.4260789796       29.8786091232       -3.7670854560  MEMB      146             0.0000000000
     18144       146  PMPE      H15S           15.4675060117       28.4076135154       -3.1523614495  MEMB      146             0.0000000000
     18145       146  PMPE      C216           15.3396613329       30.1342818603       -2.0287530097  MEMB      146             0.0000000000
     18146       146  PMPE      H16R           14.3018817516       29.9244820617       -1.6874184344  MEMB      146             0.0000000000
     18147       146  PMPE      H16S           16.0691466417       29.8068943606       -1.2633763131  MEMB      146             0.0000000000
     18148       146  PMPE      H16T           15.5805195491       31.1918696561       -2.2142063282  MEMB      146             0.0000000000
     18149       146  PMPE      C33            11.1615382275       24.4782806727      -11.0123764944  MEMB      146             0.0000000000
     18150       146  PMPE      H3X            10.8447679968       23.4754600911      -10.6922120348  MEMB      146             0.0000000000
     18151       146  PMPE      H3Y            10.2488988465       24.8961204195      -11.4969060701  MEMB      146             0.0000000000
     18152       146  PMPE      C34            11.4354446851       25.2620079464       -9.7041884779  MEMB      146             0.0000000000
     18153       146  PMPE      H4X            10.5237506183       25.1647155191       -9.0703401854  MEMB      146             0.0000000000
     18154       146  PMPE      H4Y            11.5619101949       26.3445402919       -9.9175111497  MEMB      146             0.0000000000
     18155       146  PMPE      C35            12.6184338036       24.8087717160       -8.8249379060  MEMB      146             0.0000000000
     18156       146  PMPE      H5X            12.5981631546       25.4459182102       -7.9105867856  MEMB      146             0.0000000000
     18157       146  PMPE      H5Y            13.5889214231       24.9931874632       -9.3370828464  MEMB      146             0.0000000000
     18158       146  PMPE      C36            12.6105064623       23.3288339852       -8.4353662165  MEMB      146             0.0000000000
     18159       146  PMPE      H6X            13.5105875207       23.0902823245       -7.8252115777  MEMB      146             0.0000000000
     18160       146  PMPE      H6Y            12.7194714679       22.7571699022       -9.3864025101  MEMB      146             0.0000000000
     18161       146  PMPE      C37            11.3724271639       22.8074326233       -7.6847030882  MEMB      146             0.0000000000
     18162       146  PMPE      H7X            11.6063277983       21.7492786695       -7.5043669951  MEMB      146             0.0000000000
     18163       146  PMPE      H7Y            10.4579286477       22.8513972819       -8.3163570390  MEMB      146             0.0000000000
     18164       146  PMPE      C38            10.9942727106       23.4039700749       -6.3205615844  MEMB      146             0.0000000000
     18165       146  PMPE      H8X            10.2417059471       22.7088308633       -5.8740230456  MEMB      146             0.0000000000
     18166       146  PMPE      H8Y            10.4909188263       24.3764591778       -6.5073181095  MEMB      146             0.0000000000
     18167       146  PMPE      C39            12.1317491412       23.6767032889       -5.3268264499  MEMB      146             0.0000000000
     18168       146  PMPE      H9X            12.9780532545       24.1426862667       -5.8764530994  MEMB      146             0.0000000000
     18169       146  PMPE      H9Y            12.4694036297       22.7402095753       -4.8339591690  MEMB      146             0.0000000000
     18170       146  PMPE      C310           11.6829225687       24.6617785372       -4.2481545302  MEMB      146             0.0000000000
     18171       146  PMPE      H10X           10.7076138440       24.3194891044       -3.8364711655  MEMB      146             0.0000000000
     18172       146  PMPE      H10Y           11.5001620160       25.6538865932       -4.7240721843  MEMB      146             0.0000000000
     18173       146  PMPE      C311           12.6813677944       24.8833854010       -3.1101552079  MEMB      146             0.0000000000
     18174       146  PMPE      H11X           13.6891226953       25.0847538768       -3.5301668578  MEMB      146             0.0000000000
     18175       146  PMPE      H11Y           12.8214602941       23.9498063983       -2.5119699718  MEMB      146             0.0000000000
     18176       146  PMPE      C312           12.1286768491       26.1119952528       -2.3200538053  MEMB      146             0.0000000000
     18177       146  PMPE      H12X           11.2897247264       25.7449760263       -1.6571923784  MEMB      146             0.0000000000
     18178       146  PMPE      H12Y           11.8320487426       26.9236699027       -2.9802693644  MEMB      146             0.0000000000
     18179       146  PMPE      C313           13.0725324485       26.9488457413       -1.4573377056  MEMB      146             0.0000000000
     18180       146  PMPE      H13X           14.1628170264       27.0821278492       -1.6021908700  MEMB      146             0.0000000000
     18181       146  PMPE      H13Y           13.2129829819       25.9536538436       -1.3351665365  MEMB      146             0.0000000000
     18182       146  PMPE      C314           12.3918010046       27.3925270689       -0.1738420165  MEMB      146             0.0000000000
     18183       146  PMPE      H14X           11.9472183770       26.7223843628        0.5682456436  MEMB      146             0.0000000000
     18184       146  PMPE      H14Y           11.6257342835       28.1206664722       -0.4201751306  MEMB      146             0.0000000000
     18185       146  PMPE      C315           13.1619900103       28.0738538848        0.7570303539  MEMB      146             0.0000000000
     18186       146  PMPE      H15X           14.1585754106       28.1891365244        0.2415849243  MEMB      146             0.0000000000
     18187       146  PMPE      H15Y           13.8682241904       27.6243795633        1.4210102870  MEMB      146             0.0000000000
     18188       146  PMPE      C316           12.1098933696       28.9948102648        1.5291647653  MEMB      146             0.0000000000
     18189       146  PMPE      H16X           12.0535038066       30.0924654261        1.3439304531  MEMB      146             0.0000000000
     18190       146  PMPE      H16Y           12.3583851553       29.2166804339        2.5411033612  MEMB      146             0.0000000000
     18191       146  PMPE      H16Z           11.1240263399       28.6064822028        1.6793001742  MEMB      146             0.0000000000
     18192       147  PMPE      N             -30.2761305627        2.7293689953      -18.3411138662  MEMB      147             0.0000000000
     18193       147  PMPE      HN1           -30.4242955367        3.3553901736      -17.5184976295  MEMB      147             0.0000000000
     18194       147  PMPE      HN2           -29.3211917716        2.3252895639      -18.3095229437  MEMB      147             0.0000000000
     18195       147  PMPE      HN3           -30.3598214339        3.3291049532      -19.1874129762  MEMB      147             0.0000000000
     18196       147  PMPE      C12           -31.2726736126        1.6039507881      -18.3485650602  MEMB      147             0.0000000000
     18197       147  PMPE      H12A          -32.2881688019        2.0399171247      -18.4534072522  MEMB      147             0.0000000000
     18198       147  PMPE      H12B          -31.1852962129        1.0861295687      -17.3691234070  MEMB      147             0.0000000000
     18199       147  PMPE      C11           -30.9376031581        0.6120448410      -19.4659258995  MEMB      147             0.0000000000
     18200       147  PMPE      H11A          -29.8652435302        0.3161052100      -19.3896181114  MEMB      147             0.0000000000
     18201       147  PMPE      H11B          -31.0654968666        1.0838733814      -20.4668992947  MEMB      147             0.0000000000
     18202       147  PMPE      P             -31.1998510867       -2.0050987004      -19.2603852448  MEMB      147             0.0000000000
     18203       147  PMPE      O13           -30.2435959432       -2.1528287808      -20.3848184793  MEMB      147             0.0000000000
     18204       147  PMPE      O14           -32.2988616079       -2.9747241952      -19.0698280470  MEMB      147             0.0000000000
     18205       147  PMPE      O11           -30.4143024581       -1.7043036748      -17.9400586985  MEMB      147             0.0000000000
     18206       147  PMPE      O12           -31.7897030369       -0.5214223930      -19.3610693610  MEMB      147             0.0000000000
     18207       147  PMPE      C1            -29.1027428506       -2.1717763469      -17.6913567193  MEMB      147             0.0000000000
     18208       147  PMPE      HA            -28.3611130773       -1.3951641857      -17.9398144073  MEMB      147             0.0000000000
     18209       147  PMPE      HB            -28.8676394682       -3.0838227651      -18.2940575661  MEMB      147             0.0000000000
     18210       147  PMPE      C2            -28.9941643977       -2.4887887205      -16.2075128570  MEMB      147             0.0000000000
     18211       147  PMPE      HS            -28.0687119007       -3.1194683609      -16.0675458516  MEMB      147             0.0000000000
     18212       147  PMPE      O21           -30.2432836164       -3.1696568404      -15.8897839684  MEMB      147             0.0000000000
     18213       147  PMPE      C21           -30.1488627419       -3.4938108315      -14.6668828725  MEMB      147             0.0000000000
     18214       147  PMPE      O22           -29.0464040518       -3.5492334655      -14.1319765504  MEMB      147             0.0000000000
     18215       147  PMPE      C22           -31.5746919978       -3.7185798212      -14.0452066811  MEMB      147             0.0000000000
     18216       147  PMPE      H2R           -31.7920618265       -4.7268160709      -13.6466028095  MEMB      147             0.0000000000
     18217       147  PMPE      H2S           -32.2660997353       -3.6292645442      -14.9037116962  MEMB      147             0.0000000000
     18218       147  PMPE      C3            -28.7790586670       -1.2030032017      -15.3038302491  MEMB      147             0.0000000000
     18219       147  PMPE      HX            -28.0077152463       -0.5862047076      -15.7898679457  MEMB      147             0.0000000000
     18220       147  PMPE      HY            -28.3553763425       -1.5099964574      -14.3117379875  MEMB      147             0.0000000000
     18221       147  PMPE      O31           -30.0018701950       -0.4607377913      -15.1128205408  MEMB      147             0.0000000000
     18222       147  PMPE      C31           -29.8555091668        0.6064278253      -14.3452542687  MEMB      147             0.0000000000
     18223       147  PMPE      O32           -28.8033439028        1.0142086513      -13.9059929853  MEMB      147             0.0000000000
     18224       147  PMPE      C32           -31.2219917941        1.2073996921      -14.1142208029  MEMB      147             0.0000000000
     18225       147  PMPE      H2X           -31.7242106333        0.4673786751      -13.4586090162  MEMB      147             0.0000000000
     18226       147  PMPE      H2Y           -31.8059630477        1.2781799330      -15.0533601451  MEMB      147             0.0000000000
     18227       147  PMPE      C23           -31.9483653526       -2.7043746172      -12.9419024034  MEMB      147             0.0000000000
     18228       147  PMPE      H3R           -31.5280231805       -1.7243707272      -13.2474783317  MEMB      147             0.0000000000
     18229       147  PMPE      H3S           -31.5345286471       -2.9852450479      -11.9490486628  MEMB      147             0.0000000000
     18230       147  PMPE      C24           -33.4592973499       -2.5408502242      -12.7731366308  MEMB      147             0.0000000000
     18231       147  PMPE      H4R           -33.8887599232       -3.5037475775      -12.4184533222  MEMB      147             0.0000000000
     18232       147  PMPE      H4S           -33.8848420097       -2.3156013906      -13.7779536331  MEMB      147             0.0000000000
     18233       147  PMPE      C25           -33.8078063431       -1.4147114323      -11.7787934620  MEMB      147             0.0000000000
     18234       147  PMPE      H5R           -33.2473365771       -0.5050856110      -12.0951579360  MEMB      147             0.0000000000
     18235       147  PMPE      H5S           -33.4259815085       -1.6918430349      -10.7713692714  MEMB      147             0.0000000000
     18236       147  PMPE      C26           -35.3158441294       -1.0739594183      -11.7857639709  MEMB      147             0.0000000000
     18237       147  PMPE      H6R           -35.9203204586       -2.0021179862      -11.8788925568  MEMB      147             0.0000000000
     18238       147  PMPE      H6S           -35.4800950562       -0.4853906141      -12.7164902289  MEMB      147             0.0000000000
     18239       147  PMPE      C27           -35.8978233838       -0.2153420730      -10.6383963184  MEMB      147             0.0000000000
     18240       147  PMPE      H7R           -36.1786097537       -0.7689114692       -9.7282745784  MEMB      147             0.0000000000
     18241       147  PMPE      H7S           -36.8817287165        0.1663396031      -10.9916063480  MEMB      147             0.0000000000
     18242       147  PMPE      C28           -35.0133373590        0.9702689633      -10.2477545588  MEMB      147             0.0000000000
     18243       147  PMPE      H8R           -34.8639266983        1.5379963545      -11.1882822469  MEMB      147             0.0000000000
     18244       147  PMPE      H8S           -33.9944552654        0.6688189510       -9.9397608669  MEMB      147             0.0000000000
     18245       147  PMPE      C29           -35.7057563805        1.7837324246       -9.1409779503  MEMB      147             0.0000000000
     18246       147  PMPE      H9R           -36.7336675944        2.1359097210       -9.3225464464  MEMB      147             0.0000000000
     18247       147  PMPE      C217          -34.8462311196        2.5957611651       -8.1731555184  MEMB      147             0.0000000000
     18248       147  PMPE      H17R          -35.3244983575        3.4742428123       -7.7688274256  MEMB      147             0.0000000000
     18249       147  PMPE      H17S          -33.7824748183        2.4611025250       -8.3013428199  MEMB      147             0.0000000000
     18250       147  PMPE      C210          -35.5207765300        1.3333299947       -7.7080734515  MEMB      147             0.0000000000
     18251       147  PMPE      H10R          -36.4334619659        1.3910756484       -7.0870749995  MEMB      147             0.0000000000
     18252       147  PMPE      C211          -34.6057432293        0.1731437831       -7.4432071706  MEMB      147             0.0000000000
     18253       147  PMPE      H11R          -33.7467503319        0.0121837879       -8.1190559397  MEMB      147             0.0000000000
     18254       147  PMPE      H11S          -35.3148906125       -0.5798920312       -7.7137483383  MEMB      147             0.0000000000
     18255       147  PMPE      C212          -34.1740020658        0.0877343651       -5.9860288844  MEMB      147             0.0000000000
     18256       147  PMPE      H12R          -33.7905807593       -0.9351901882       -5.7678719877  MEMB      147             0.0000000000
     18257       147  PMPE      H12S          -35.0222585523        0.2767540634       -5.2942345999  MEMB      147             0.0000000000
     18258       147  PMPE      C213          -33.0170589057        1.0492242739       -5.7566117094  MEMB      147             0.0000000000
     18259       147  PMPE      H13R          -33.3473074514        2.1084825941       -5.8190690657  MEMB      147             0.0000000000
     18260       147  PMPE      H13S          -32.2855360801        0.8649229110       -6.5844595160  MEMB      147             0.0000000000
     18261       147  PMPE      C214          -32.2929666035        0.7358429242       -4.4549982143  MEMB      147             0.0000000000
     18262       147  PMPE      H14R          -31.3328877321        1.2834680375       -4.4762070561  MEMB      147             0.0000000000
     18263       147  PMPE      H14S          -32.0773246662       -0.3571003242       -4.4632405757  MEMB      147             0.0000000000
     18264       147  PMPE      C215          -33.0468355172        1.0659996910       -3.1615613298  MEMB      147             0.0000000000
     18265       147  PMPE      H15R          -34.0045872491        0.5001213592       -3.1529490952  MEMB      147             0.0000000000
     18266       147  PMPE      H15S          -33.2691931706        2.1587323650       -3.1171589491  MEMB      147             0.0000000000
     18267       147  PMPE      C216          -32.2578365456        0.6543613742       -1.9180022469  MEMB      147             0.0000000000
     18268       147  PMPE      H16R          -32.1514149526       -0.4510475572       -1.8670725401  MEMB      147             0.0000000000
     18269       147  PMPE      H16S          -31.2503779812        1.1091325946       -1.9477412160  MEMB      147             0.0000000000
     18270       147  PMPE      H16T          -32.7572376617        0.9872708285       -0.9868257520  MEMB      147             0.0000000000
     18271       147  PMPE      C33           -31.1929156892        2.5687776882      -13.4102581874  MEMB      147             0.0000000000
     18272       147  PMPE      H3X           -31.9823924463        3.1680998984      -13.9312133617  MEMB      147             0.0000000000
     18273       147  PMPE      H3Y           -30.2462465631        3.1436431727      -13.5477257700  MEMB      147             0.0000000000
     18274       147  PMPE      C34           -31.5709872583        2.3906283948      -11.9227368417  MEMB      147             0.0000000000
     18275       147  PMPE      H4X           -32.3405602119        1.6050308035      -11.8190587971  MEMB      147             0.0000000000
     18276       147  PMPE      H4Y           -32.0048209285        3.3539827230      -11.5815926255  MEMB      147             0.0000000000
     18277       147  PMPE      C35           -30.4262476935        2.0325425526      -10.9655942897  MEMB      147             0.0000000000
     18278       147  PMPE      H5X           -30.5818399239        2.4106735982       -9.9300374584  MEMB      147             0.0000000000
     18279       147  PMPE      H5Y           -29.6114632123        2.5850311227      -11.4249127007  MEMB      147             0.0000000000
     18280       147  PMPE      C36           -30.0629708292        0.5522616565      -10.8279734251  MEMB      147             0.0000000000
     18281       147  PMPE      H6X           -29.4546503685        0.2572539258      -11.7068139925  MEMB      147             0.0000000000
     18282       147  PMPE      H6Y           -30.9666843126       -0.0870272267      -10.7937181621  MEMB      147             0.0000000000
     18283       147  PMPE      C37           -29.2550139228        0.2460668325       -9.5731092170  MEMB      147             0.0000000000
     18284       147  PMPE      H7X           -29.7831606724        0.4998209144       -8.6252159651  MEMB      147             0.0000000000
     18285       147  PMPE      H7Y           -28.3123965117        0.7929439763       -9.6116427515  MEMB      147             0.0000000000
     18286       147  PMPE      C38           -28.7647560055       -1.1710393034       -9.5683711395  MEMB      147             0.0000000000
     18287       147  PMPE      H8X           -27.9030508494       -1.1763774424       -8.9034675775  MEMB      147             0.0000000000
     18288       147  PMPE      H8Y           -28.3167712854       -1.4905801225      -10.5413710561  MEMB      147             0.0000000000
     18289       147  PMPE      C39           -29.8750702498       -2.1224796665       -9.1878124039  MEMB      147             0.0000000000
     18290       147  PMPE      H9X           -29.3232861153       -3.0403888850       -8.9139718721  MEMB      147             0.0000000000
     18291       147  PMPE      H9Y           -30.5575168809       -2.2475586787      -10.0624794660  MEMB      147             0.0000000000
     18292       147  PMPE      C310          -30.5036716045       -2.2235209567       -7.8289531642  MEMB      147             0.0000000000
     18293       147  PMPE      H10X          -30.9652620919       -1.2645522664       -7.5727813049  MEMB      147             0.0000000000
     18294       147  PMPE      H10Y          -29.7057156451       -2.4508297677       -7.0874463542  MEMB      147             0.0000000000
     18295       147  PMPE      C311          -31.4454794643       -3.4395966855       -7.8268253552  MEMB      147             0.0000000000
     18296       147  PMPE      H11X          -30.9295218986       -4.3840939108       -8.1278711370  MEMB      147             0.0000000000
     18297       147  PMPE      H11Y          -32.2357982170       -3.2420063933       -8.5912692085  MEMB      147             0.0000000000
     18298       147  PMPE      C312          -32.0956423565       -3.6364404560       -6.4622524504  MEMB      147             0.0000000000
     18299       147  PMPE      H12X          -32.8411339239       -4.4462171289       -6.5645867476  MEMB      147             0.0000000000
     18300       147  PMPE      H12Y          -32.5638280693       -2.6494752418       -6.2381946769  MEMB      147             0.0000000000
     18301       147  PMPE      C313          -31.1901244480       -4.0226277924       -5.2855528558  MEMB      147             0.0000000000
     18302       147  PMPE      H13X          -30.3251106613       -3.3471618912       -5.3159003009  MEMB      147             0.0000000000
     18303       147  PMPE      H13Y          -30.8226614512       -5.0693687177       -5.3550876225  MEMB      147             0.0000000000
     18304       147  PMPE      C314          -31.8675380890       -3.8797204497       -3.9187112459  MEMB      147             0.0000000000
     18305       147  PMPE      H14X          -32.6266372363       -4.6804970962       -3.7998197423  MEMB      147             0.0000000000
     18306       147  PMPE      H14Y          -32.3915441319       -2.8997893218       -3.8404353937  MEMB      147             0.0000000000
     18307       147  PMPE      C315          -30.9017285624       -4.0498718928       -2.7496043818  MEMB      147             0.0000000000
     18308       147  PMPE      H15X          -30.1815875144       -3.2124850361       -2.7369629654  MEMB      147             0.0000000000
     18309       147  PMPE      H15Y          -30.3256190606       -4.9983505110       -2.8676444341  MEMB      147             0.0000000000
     18310       147  PMPE      C316          -31.6590665062       -4.1286813568       -1.4326923422  MEMB      147             0.0000000000
     18311       147  PMPE      H16X          -32.5574303054       -3.4729704832       -1.4411979407  MEMB      147             0.0000000000
     18312       147  PMPE      H16Y          -31.0178655602       -3.8454913412       -0.5710327588  MEMB      147             0.0000000000
     18313       147  PMPE      H16Z          -31.9931957512       -5.1818009553       -1.3276563270  MEMB      147             0.0000000000
     18314       148  PMPE      N              27.5565474212       10.7517252378      -21.5209344683  MEMB      148             0.0000000000
     18315       148  PMPE      HN1            27.3563724714       10.9291997499      -22.5301701306  MEMB      148             0.0000000000
     18316       148  PMPE      HN2            27.1360034277        9.8518860431      -21.2299764228  MEMB      148             0.0000000000
     18317       148  PMPE      HN3            27.1467549023       11.4808747157      -20.9069071813  MEMB      148             0.0000000000
     18318       148  PMPE      C12            29.0427916919       10.6973164567      -21.2605756342  MEMB      148             0.0000000000
     18319       148  PMPE      H12A           29.5548945882       10.9642475199      -22.2041422683  MEMB      148             0.0000000000
     18320       148  PMPE      H12B           29.3059176605        9.6540039744      -20.9869004535  MEMB      148             0.0000000000
     18321       148  PMPE      C11            29.4680542704       11.7152760438      -20.1861277436  MEMB      148             0.0000000000
     18322       148  PMPE      H11A           29.2237273626       12.7359725143      -20.5592318707  MEMB      148             0.0000000000
     18323       148  PMPE      H11B           30.5776327439       11.7038267092      -20.0646592779  MEMB      148             0.0000000000
     18324       148  PMPE      P              29.5100841413       10.5350044015      -17.8261742696  MEMB      148             0.0000000000
     18325       148  PMPE      O13            30.0779121912        9.3704054087      -18.5270334010  MEMB      148             0.0000000000
     18326       148  PMPE      O14            28.5116586986       10.3121888932      -16.7623844722  MEMB      148             0.0000000000
     18327       148  PMPE      O11            30.6514441538       11.4311603608      -17.2150771949  MEMB      148             0.0000000000
     18328       148  PMPE      O12            28.8076831001       11.4750328887      -18.9458834248  MEMB      148             0.0000000000
     18329       148  PMPE      C1             30.7005878086       12.8393078461      -17.4099256756  MEMB      148             0.0000000000
     18330       148  PMPE      HA             29.6897184206       13.2852821000      -17.4654487748  MEMB      148             0.0000000000
     18331       148  PMPE      HB             31.2571065725       13.0450131279      -18.3512171073  MEMB      148             0.0000000000
     18332       148  PMPE      C2             31.3707097090       13.5849873123      -16.2457221328  MEMB      148             0.0000000000
     18333       148  PMPE      HS             31.7355476096       14.5725098347      -16.6178817752  MEMB      148             0.0000000000
     18334       148  PMPE      O21            32.4756056175       12.8328036770      -15.8322717250  MEMB      148             0.0000000000
     18335       148  PMPE      C21            33.0385910670       13.3784079179      -14.8457558978  MEMB      148             0.0000000000
     18336       148  PMPE      O22            33.0599015224       14.5525612949      -14.5033778165  MEMB      148             0.0000000000
     18337       148  PMPE      C22            33.8587948116       12.3045556457      -14.2872431999  MEMB      148             0.0000000000
     18338       148  PMPE      H2R            34.6247414538       12.9537175347      -13.8653043885  MEMB      148             0.0000000000
     18339       148  PMPE      H2S            34.1926740784       11.6105471546      -15.0989301184  MEMB      148             0.0000000000
     18340       148  PMPE      C3             30.3967880335       13.8438870179      -15.0444513772  MEMB      148             0.0000000000
     18341       148  PMPE      HX             29.4661846227       14.1983969637      -15.5154402913  MEMB      148             0.0000000000
     18342       148  PMPE      HY             30.7868596950       14.6867269846      -14.4316461546  MEMB      148             0.0000000000
     18343       148  PMPE      O31            30.0850274766       12.6786881586      -14.2486748643  MEMB      148             0.0000000000
     18344       148  PMPE      C31            30.4072690118       12.7169671269      -12.9667617373  MEMB      148             0.0000000000
     18345       148  PMPE      O32            31.1096441939       13.5481196701      -12.4233850011  MEMB      148             0.0000000000
     18346       148  PMPE      C32            29.7937295691       11.5242796155      -12.2713607766  MEMB      148             0.0000000000
     18347       148  PMPE      H2X            30.2347981357       10.6151915771      -12.7318917967  MEMB      148             0.0000000000
     18348       148  PMPE      H2Y            28.6994953142       11.5235919881      -12.4526500749  MEMB      148             0.0000000000
     18349       148  PMPE      C23            33.6729193066       11.8915395978      -12.8599826055  MEMB      148             0.0000000000
     18350       148  PMPE      H3R            32.6173062931       11.6792461290      -12.8185023937  MEMB      148             0.0000000000
     18351       148  PMPE      H3S            33.9283382551       12.7621069767      -12.1920089986  MEMB      148             0.0000000000
     18352       148  PMPE      C24            34.1264155952       10.5443718532      -12.3648047695  MEMB      148             0.0000000000
     18353       148  PMPE      H4R            34.4941497650       10.3859383746      -13.4368081533  MEMB      148             0.0000000000
     18354       148  PMPE      H4S            34.9006005067        9.7744163980      -12.6039240724  MEMB      148             0.0000000000
     18355       148  PMPE      C25            34.2831827028       10.8743842985      -10.7455297834  MEMB      148             0.0000000000
     18356       148  PMPE      H5R            34.9998054069       10.3114391299      -10.2531571945  MEMB      148             0.0000000000
     18357       148  PMPE      H5S            33.4653815832       10.3700396872      -10.2618082538  MEMB      148             0.0000000000
     18358       148  PMPE      C26            34.9063844444       12.1693754275       -9.8912077447  MEMB      148             0.0000000000
     18359       148  PMPE      H6R            34.5935173943       13.0812881252      -10.3503478814  MEMB      148             0.0000000000
     18360       148  PMPE      H6S            35.9838507210       12.4417327172       -9.9343842569  MEMB      148             0.0000000000
     18361       148  PMPE      C27            35.0322074504       12.2136525551       -8.3537131239  MEMB      148             0.0000000000
     18362       148  PMPE      H7R            35.5197982161       12.9001855862       -7.6826083524  MEMB      148             0.0000000000
     18363       148  PMPE      H7S            35.9560163337       11.7114065877       -8.0534698649  MEMB      148             0.0000000000
     18364       148  PMPE      C28            33.6835243822       12.0556984154       -7.7981069822  MEMB      148             0.0000000000
     18365       148  PMPE      H8R            33.8120296145       11.8804782867       -6.7181741936  MEMB      148             0.0000000000
     18366       148  PMPE      H8S            33.2901721361       11.1737999117       -8.3267199228  MEMB      148             0.0000000000
     18367       148  PMPE      C29            32.9258613313       13.2642450665       -8.2164877588  MEMB      148             0.0000000000
     18368       148  PMPE      H9R            32.8334261613       13.4927650794       -9.2954950396  MEMB      148             0.0000000000
     18369       148  PMPE      C217           33.4374932927       14.4480527105       -7.4169868545  MEMB      148             0.0000000000
     18370       148  PMPE      H17R           33.4079430071       15.3473015462       -7.9865236543  MEMB      148             0.0000000000
     18371       148  PMPE      H17S           34.0736695495       14.2332199661       -6.5654909072  MEMB      148             0.0000000000
     18372       148  PMPE      C210           32.0296100574       13.9611768172       -7.2600246181  MEMB      148             0.0000000000
     18373       148  PMPE      H10R           31.2467891538       14.5337810000       -7.7784531362  MEMB      148             0.0000000000
     18374       148  PMPE      C211           31.7528671429       13.2099706752       -5.9907807672  MEMB      148             0.0000000000
     18375       148  PMPE      H11R           32.6934916522       13.0433414031       -5.4129281416  MEMB      148             0.0000000000
     18376       148  PMPE      H11S           31.3027514240       12.2309173055       -6.2498675135  MEMB      148             0.0000000000
     18377       148  PMPE      C212           30.8203102841       14.0137722819       -5.1099662270  MEMB      148             0.0000000000
     18378       148  PMPE      H12R           29.8186079421       14.1124526201       -5.5791989982  MEMB      148             0.0000000000
     18379       148  PMPE      H12S           31.2761370990       15.0303995290       -5.0089876084  MEMB      148             0.0000000000
     18380       148  PMPE      C213           30.6966422308       13.3272038502       -3.7590534990  MEMB      148             0.0000000000
     18381       148  PMPE      H13R           31.6873205831       12.8828237611       -3.5030136494  MEMB      148             0.0000000000
     18382       148  PMPE      H13S           29.9800505916       12.4774891876       -3.7879022551  MEMB      148             0.0000000000
     18383       148  PMPE      C214           30.2473627451       14.2866532800       -2.6728169793  MEMB      148             0.0000000000
     18384       148  PMPE      H14R           29.2282784361       14.6785167172       -2.8906571763  MEMB      148             0.0000000000
     18385       148  PMPE      H14S           30.9362607689       15.1641987434       -2.6546903535  MEMB      148             0.0000000000
     18386       148  PMPE      C215           30.1820825713       13.5196726035       -1.3650791016  MEMB      148             0.0000000000
     18387       148  PMPE      H15R           31.1426170903       12.9767320958       -1.1735115927  MEMB      148             0.0000000000
     18388       148  PMPE      H15S           29.3627694071       12.7778218987       -1.3982228556  MEMB      148             0.0000000000
     18389       148  PMPE      C216           29.9302458195       14.3823418417       -0.1832178827  MEMB      148             0.0000000000
     18390       148  PMPE      H16R           30.7439176212       15.1334327251       -0.2556112031  MEMB      148             0.0000000000
     18391       148  PMPE      H16S           28.9591368750       14.9127579071       -0.1075323491  MEMB      148             0.0000000000
     18392       148  PMPE      H16T           30.0431935817       13.7760202861        0.7403389339  MEMB      148             0.0000000000
     18393       148  PMPE      C33            30.1658967122       11.4698219402      -10.7785269110  MEMB      148             0.0000000000
     18394       148  PMPE      H3X            30.0019306104       12.4219503463      -10.2272782175  MEMB      148             0.0000000000
     18395       148  PMPE      H3Y            31.2648473244       11.2839565591      -10.7451547204  MEMB      148             0.0000000000
     18396       148  PMPE      C34            29.3717626741       10.3328826245      -10.1334319350  MEMB      148             0.0000000000
     18397       148  PMPE      H4X            29.5368234951        9.4221666084      -10.7542651424  MEMB      148             0.0000000000
     18398       148  PMPE      H4Y            28.2848994465       10.5712531178      -10.1477550008  MEMB      148             0.0000000000
     18399       148  PMPE      C35            29.7651011577        9.9849135930       -8.7050691396  MEMB      148             0.0000000000
     18400       148  PMPE      H5X            29.0920298270        9.1535462305       -8.4001915910  MEMB      148             0.0000000000
     18401       148  PMPE      H5Y            29.6120163943       10.8620366169       -8.0344413418  MEMB      148             0.0000000000
     18402       148  PMPE      C36            31.1768251804        9.4237198710       -8.6439041424  MEMB      148             0.0000000000
     18403       148  PMPE      H6X            31.8767202875       10.1094414937       -9.1363576488  MEMB      148             0.0000000000
     18404       148  PMPE      H6Y            31.1776889528        8.4489303218       -9.1866855740  MEMB      148             0.0000000000
     18405       148  PMPE      C37            31.7090855800        9.1838232434       -7.2548491352  MEMB      148             0.0000000000
     18406       148  PMPE      H7X            31.5482939736       10.0391493868       -6.5628522850  MEMB      148             0.0000000000
     18407       148  PMPE      H7Y            32.8107387725        9.0218563541       -7.3345965672  MEMB      148             0.0000000000
     18408       148  PMPE      C38            31.0691194400        7.9473412482       -6.6956626451  MEMB      148             0.0000000000
     18409       148  PMPE      H8X            30.8291664912        7.1684534414       -7.4525548670  MEMB      148             0.0000000000
     18410       148  PMPE      H8Y            30.1197490381        8.2433657793       -6.1984923648  MEMB      148             0.0000000000
     18411       148  PMPE      C39            32.0605700488        7.3311406177       -5.7609343286  MEMB      148             0.0000000000
     18412       148  PMPE      H9X            33.1237139556        7.4810143998       -6.0096807849  MEMB      148             0.0000000000
     18413       148  PMPE      H9Y            31.7496784460        6.2607487801       -5.6396669122  MEMB      148             0.0000000000
     18414       148  PMPE      C310           32.1213790336        8.0291179891       -4.4854682860  MEMB      148             0.0000000000
     18415       148  PMPE      H10X           31.0347335851        7.8075438813       -4.4689087848  MEMB      148             0.0000000000
     18416       148  PMPE      H10Y           32.0754442847        9.1208820104       -4.4525210043  MEMB      148             0.0000000000
     18417       148  PMPE      C311           33.1291025322        7.4028346910       -3.4674080649  MEMB      148             0.0000000000
     18418       148  PMPE      H11X           34.1820476106        7.4760378668       -3.7220066448  MEMB      148             0.0000000000
     18419       148  PMPE      H11Y           32.9704221759        6.3079395293       -3.4202211326  MEMB      148             0.0000000000
     18420       148  PMPE      C312           33.1268943767        7.9332968432       -2.0482563329  MEMB      148             0.0000000000
     18421       148  PMPE      H12X           33.6741854711        7.4823878940       -1.2385593269  MEMB      148             0.0000000000
     18422       148  PMPE      H12Y           32.3149530895        7.4516822939       -1.6090606193  MEMB      148             0.0000000000
     18423       148  PMPE      C313           33.1762374300        9.4340085201       -1.9120301232  MEMB      148             0.0000000000
     18424       148  PMPE      H13X           32.1797384073        9.9262267076       -2.0638310662  MEMB      148             0.0000000000
     18425       148  PMPE      H13Y           33.7976489417        9.6777301820       -2.7708850603  MEMB      148             0.0000000000
     18426       148  PMPE      C314           33.6838518658        9.7854209227       -0.5014625459  MEMB      148             0.0000000000
     18427       148  PMPE      H14X           34.0437307093        8.9223657037        0.0996928390  MEMB      148             0.0000000000
     18428       148  PMPE      H14Y           32.8256155878       10.1484902327        0.0727456233  MEMB      148             0.0000000000
     18429       148  PMPE      C315           34.2596017890       11.1423470535       -0.2586824336  MEMB      148             0.0000000000
     18430       148  PMPE      H15X           33.5558166881       11.8374132688       -0.7853115602  MEMB      148             0.0000000000
     18431       148  PMPE      H15Y           35.2479368615       11.1543086558       -0.6884573836  MEMB      148             0.0000000000
     18432       148  PMPE      C316           34.3485304176       11.4386210667        1.2343168484  MEMB      148             0.0000000000
     18433       148  PMPE      H16X           34.8153060399       10.5682991414        1.7644365992  MEMB      148             0.0000000000
     18434       148  PMPE      H16Y           33.3162156369       11.5807778382        1.5976822576  MEMB      148             0.0000000000
     18435       148  PMPE      H16Z           34.8741435875       12.3579553190        1.5084489287  MEMB      148             0.0000000000
     18436       149  PYPG      C13            22.9136127578      -17.6162163889      -19.4861567991  MEMB      149             0.0000000000
     18437       149  PYPG      H13A           21.8008477564      -17.6676817444      -19.4951145137  MEMB      149             0.0000000000
     18438       149  PYPG      H13B           23.2094820312      -16.5551237366      -19.6127704573  MEMB      149             0.0000000000
     18439       149  PYPG      OC3            23.4358287084      -18.3282643430      -20.6167436285  MEMB      149             0.0000000000
     18440       149  PYPG      HO3            23.3262654017      -19.2619185569      -20.4140382266  MEMB      149             0.0000000000
     18441       149  PYPG      C12            23.4449610141      -18.1246485218      -18.1037660856  MEMB      149             0.0000000000
     18442       149  PYPG      H12A           22.9661316995      -19.0995541508      -17.8639840678  MEMB      149             0.0000000000
     18443       149  PYPG      OC2            23.1034830305      -17.2118134072      -17.0598831180  MEMB      149             0.0000000000
     18444       149  PYPG      HO2            23.6327468483      -17.4749194415      -16.3031420584  MEMB      149             0.0000000000
     18445       149  PYPG      C11            24.9651746501      -18.3595475178      -18.0836069442  MEMB      149             0.0000000000
     18446       149  PYPG      H11A           25.3324314195      -18.4424121760      -17.0357907820  MEMB      149             0.0000000000
     18447       149  PYPG      H11B           25.4266212739      -17.4547489475      -18.5547873361  MEMB      149             0.0000000000
     18448       149  PYPG      P              26.6769742760      -19.8097542856      -19.4109067955  MEMB      149             0.0000000000
     18449       149  PYPG      O13            27.3919514352      -18.5255807433      -19.4771145636  MEMB      149             0.0000000000
     18450       149  PYPG      O14            26.5154707831      -20.5859126891      -20.6611467902  MEMB      149             0.0000000000
     18451       149  PYPG      O11            27.3535214756      -20.7379505698      -18.3228302228  MEMB      149             0.0000000000
     18452       149  PYPG      O12            25.2454702049      -19.5783564757      -18.7802356428  MEMB      149             0.0000000000
     18453       149  PYPG      C1             26.8102039868      -21.9859897016      -17.9327031992  MEMB      149             0.0000000000
     18454       149  PYPG      HA             27.6334853112      -22.7002225060      -17.8147715664  MEMB      149             0.0000000000
     18455       149  PYPG      HB             26.1066516233      -22.4102951805      -18.6876794484  MEMB      149             0.0000000000
     18456       149  PYPG      C2             26.1334880549      -21.8934005077      -16.5648728543  MEMB      149             0.0000000000
     18457       149  PYPG      HS             25.2718127319      -21.1989374005      -16.6686828255  MEMB      149             0.0000000000
     18458       149  PYPG      O21            27.0805132798      -21.5396558317      -15.5221599195  MEMB      149             0.0000000000
     18459       149  PYPG      C21            26.5830314847      -20.7084572577      -14.6061374461  MEMB      149             0.0000000000
     18460       149  PYPG      O22            25.5451650650      -20.0840860834      -14.7136276269  MEMB      149             0.0000000000
     18461       149  PYPG      C22            27.4820559765      -20.7294507193      -13.3605524178  MEMB      149             0.0000000000
     18462       149  PYPG      H2R            28.4231002492      -20.1795440896      -13.5854686435  MEMB      149             0.0000000000
     18463       149  PYPG      H2S            27.6764745305      -21.7956944302      -13.1727526941  MEMB      149             0.0000000000
     18464       149  PYPG      C3             25.5327261350      -23.2282935392      -16.1923424295  MEMB      149             0.0000000000
     18465       149  PYPG      HX             26.4083451365      -23.8700486203      -15.9263053473  MEMB      149             0.0000000000
     18466       149  PYPG      HY             25.0511730798      -23.8096474010      -17.0110689144  MEMB      149             0.0000000000
     18467       149  PYPG      O31            24.6295722113      -23.0056829822      -15.0797354862  MEMB      149             0.0000000000
     18468       149  PYPG      C31            23.3600321955      -22.8867372906      -15.4643674058  MEMB      149             0.0000000000
     18469       149  PYPG      O32            22.9722093901      -22.7721099151      -16.6110018972  MEMB      149             0.0000000000
     18470       149  PYPG      C32            22.4476094522      -22.8935237118      -14.2726538288  MEMB      149             0.0000000000
     18471       149  PYPG      H2X            21.4685655121      -23.3279632007      -14.5869597697  MEMB      149             0.0000000000
     18472       149  PYPG      H2Y            22.8226644627      -23.4343010367      -13.3888352911  MEMB      149             0.0000000000
     18473       149  PYPG      C23            26.8855168855      -20.2642441914      -12.0112306442  MEMB      149             0.0000000000
     18474       149  PYPG      H3R            26.7196174778      -19.1671283262      -12.0429503801  MEMB      149             0.0000000000
     18475       149  PYPG      H3S            27.6474372804      -20.4702453595      -11.2231256996  MEMB      149             0.0000000000
     18476       149  PYPG      C24            25.6025322123      -21.0031448828      -11.5854869086  MEMB      149             0.0000000000
     18477       149  PYPG      H4R            24.9655882958      -21.1789810256      -12.4724425563  MEMB      149             0.0000000000
     18478       149  PYPG      H4S            25.0798907299      -20.3342640570      -10.8785127508  MEMB      149             0.0000000000
     18479       149  PYPG      C25            25.8137319278      -22.3147448125      -10.8125109199  MEMB      149             0.0000000000
     18480       149  PYPG      H5R            26.3586203585      -22.0881215511       -9.8732035847  MEMB      149             0.0000000000
     18481       149  PYPG      H5S            26.4360911579      -22.9678600037      -11.4583044159  MEMB      149             0.0000000000
     18482       149  PYPG      C26            24.5444541489      -23.0633679970      -10.3606222427  MEMB      149             0.0000000000
     18483       149  PYPG      H6R            24.0166120399      -23.4056314337      -11.2770811722  MEMB      149             0.0000000000
     18484       149  PYPG      H6S            23.8659481200      -22.3976619496       -9.7803463901  MEMB      149             0.0000000000
     18485       149  PYPG      C27            24.8292173966      -24.2662642917       -9.4346810936  MEMB      149             0.0000000000
     18486       149  PYPG      H7R            25.2518448477      -23.9427780735       -8.4597287643  MEMB      149             0.0000000000
     18487       149  PYPG      H7S            25.5477031387      -24.9517754113       -9.9412030844  MEMB      149             0.0000000000
     18488       149  PYPG      C28            23.5515812714      -25.0348178149       -9.0965149063  MEMB      149             0.0000000000
     18489       149  PYPG      H8R            23.3642890211      -25.6266611628       -9.9591087319  MEMB      149             0.0000000000
     18490       149  PYPG      H8S            22.6709936600      -24.3522967581       -9.0094743179  MEMB      149             0.0000000000
     18491       149  PYPG      C29            23.6401477310      -26.1608512584       -8.1221982386  MEMB      149             0.0000000000
     18492       149  PYPG      H9R            23.8840978033      -27.1436760098       -8.5664592793  MEMB      149             0.0000000000
     18493       149  PYPG      C210           23.4178254762      -26.0719753728       -6.8163467564  MEMB      149             0.0000000000
     18494       149  PYPG      H10R           23.4994971689      -26.9849520248       -6.2093547220  MEMB      149             0.0000000000
     18495       149  PYPG      C211           23.0427333729      -24.8204169989       -6.0696152265  MEMB      149             0.0000000000
     18496       149  PYPG      H11R           21.9540168338      -24.8219958991       -5.8685091654  MEMB      149             0.0000000000
     18497       149  PYPG      H11S           23.2834463987      -23.8913953936       -6.6281820251  MEMB      149             0.0000000000
     18498       149  PYPG      C212           23.8137542096      -24.7800867266       -4.7533057778  MEMB      149             0.0000000000
     18499       149  PYPG      H12R           23.7121932794      -25.7671628604       -4.2692539089  MEMB      149             0.0000000000
     18500       149  PYPG      H12S           23.4100828817      -24.0194220019       -4.0503113354  MEMB      149             0.0000000000
     18501       149  PYPG      C213           25.2962090720      -24.5591319392       -4.9987481538  MEMB      149             0.0000000000
     18502       149  PYPG      H13R           25.4835687282      -23.6924831394       -5.6471538643  MEMB      149             0.0000000000
     18503       149  PYPG      H13S           25.6918010493      -25.5180974699       -5.4191379468  MEMB      149             0.0000000000
     18504       149  PYPG      C214           26.0710977897      -24.2536227215       -3.7839634691  MEMB      149             0.0000000000
     18505       149  PYPG      H14R           27.1449310496      -24.0507458013       -4.0391923606  MEMB      149             0.0000000000
     18506       149  PYPG      H14S           25.7402827623      -23.3557569368       -3.2098471149  MEMB      149             0.0000000000
     18507       149  PYPG      C215           25.9443692991      -25.4774915262       -2.9619207468  MEMB      149             0.0000000000
     18508       149  PYPG      H15R           26.4939424092      -26.3832751139       -3.3446674487  MEMB      149             0.0000000000
     18509       149  PYPG      H15S           24.9770267271      -25.7062008408       -2.5428286208  MEMB      149             0.0000000000
     18510       149  PYPG      C216           26.6789759180      -25.0928650987       -1.8788367976  MEMB      149             0.0000000000
     18511       149  PYPG      H16R           27.5435387807      -24.6347856553       -2.3661200636  MEMB      149             0.0000000000
     18512       149  PYPG      H16S           27.0079374392      -26.0918385787       -1.4674682258  MEMB      149             0.0000000000
     18513       149  PYPG      H16T           26.3612527116      -24.4015150049       -1.0679320266  MEMB      149             0.0000000000
     18514       149  PYPG      C33            22.3606152072      -21.5039041926      -13.7102616069  MEMB      149             0.0000000000
     18515       149  PYPG      H3X            22.3360856500      -20.7489622711      -14.5345939443  MEMB      149             0.0000000000
     18516       149  PYPG      H3Y            23.2468673774      -21.0637305312      -13.2808902296  MEMB      149             0.0000000000
     18517       149  PYPG      C34            21.3725258688      -21.5492751527      -12.5616287036  MEMB      149             0.0000000000
     18518       149  PYPG      H4X            20.9727367648      -22.4181569842      -12.0150421722  MEMB      149             0.0000000000
     18519       149  PYPG      H4Y            20.3853732614      -21.4213675794      -12.9978933088  MEMB      149             0.0000000000
     18520       149  PYPG      C35            21.5591231397      -20.4032256508      -11.6109032781  MEMB      149             0.0000000000
     18521       149  PYPG      H5X            20.5409909905      -20.4385639368      -11.1886005047  MEMB      149             0.0000000000
     18522       149  PYPG      H5Y            21.7410726641      -19.4348220708      -12.1307840352  MEMB      149             0.0000000000
     18523       149  PYPG      C36            22.7842484715      -19.8251040494      -11.0108383302  MEMB      149             0.0000000000
     18524       149  PYPG      H6X            23.5060695879      -19.5936936264      -11.8627135600  MEMB      149             0.0000000000
     18525       149  PYPG      H6Y            22.8108570970      -20.7449673216      -10.4563740958  MEMB      149             0.0000000000
     18526       149  PYPG      C37            22.7558796122      -18.5318809981      -10.1790051623  MEMB      149             0.0000000000
     18527       149  PYPG      H7X            22.5305091896      -17.7851892031      -10.8863625506  MEMB      149             0.0000000000
     18528       149  PYPG      H7Y            22.1061380434      -18.2717065268       -9.3053180540  MEMB      149             0.0000000000
     18529       149  PYPG      C38            23.8226751795      -18.4117751363       -9.2738932382  MEMB      149             0.0000000000
     18530       149  PYPG      H8X            23.7937158209      -17.4316174723       -8.7842110047  MEMB      149             0.0000000000
     18531       149  PYPG      H8Y            24.6489543682      -18.5425731964       -9.9838482906  MEMB      149             0.0000000000
     18532       149  PYPG      C39            23.4652080277      -19.3776035838       -8.1697893753  MEMB      149             0.0000000000
     18533       149  PYPG      H9X            23.1139040451      -20.3648621090       -8.5452036988  MEMB      149             0.0000000000
     18534       149  PYPG      H9Y            22.6368768408      -18.9712316629       -7.5318290454  MEMB      149             0.0000000000
     18535       149  PYPG      C310           24.7411649858      -19.4416778524       -7.4476857335  MEMB      149             0.0000000000
     18536       149  PYPG      H10X           25.0190541399      -18.4095565819       -7.1221241354  MEMB      149             0.0000000000
     18537       149  PYPG      H10Y           25.4350731664      -19.7837823009       -8.2516857667  MEMB      149             0.0000000000
     18538       149  PYPG      C311           24.6174226327      -20.4237551525       -6.3222001387  MEMB      149             0.0000000000
     18539       149  PYPG      H11X           25.6367770837      -20.6529944890       -5.9708361171  MEMB      149             0.0000000000
     18540       149  PYPG      H11Y           24.1446598786      -21.3498281983       -6.7270405930  MEMB      149             0.0000000000
     18541       149  PYPG      C312           23.7963445834      -19.8608871035       -5.1628090727  MEMB      149             0.0000000000
     18542       149  PYPG      H12X           24.4652775307      -19.1996428611       -4.5671219988  MEMB      149             0.0000000000
     18543       149  PYPG      H12Y           22.9865616902      -19.2237950823       -5.5741807124  MEMB      149             0.0000000000
     18544       149  PYPG      C313           23.2173380832      -20.9721428226       -4.2727499943  MEMB      149             0.0000000000
     18545       149  PYPG      H13X           22.7849147446      -21.7759101147       -4.9042210476  MEMB      149             0.0000000000
     18546       149  PYPG      H13Y           24.0947801897      -21.4223461125       -3.7578366307  MEMB      149             0.0000000000
     18547       149  PYPG      C314           22.1177173525      -20.4844294148       -3.3015134326  MEMB      149             0.0000000000
     18548       149  PYPG      H14X           22.3681277916      -19.4328595816       -3.0242521469  MEMB      149             0.0000000000
     18549       149  PYPG      H14Y           21.1237530396      -20.4754792007       -3.7936643714  MEMB      149             0.0000000000
     18550       149  PYPG      C315           22.0220050143      -21.2287491926       -1.9719481438  MEMB      149             0.0000000000
     18551       149  PYPG      H15X           21.0963798441      -20.9235059282       -1.4249818473  MEMB      149             0.0000000000
     18552       149  PYPG      H15Y           21.9877498223      -22.3373020883       -2.0579139599  MEMB      149             0.0000000000
     18553       149  PYPG      C316           23.2339622087      -20.8516769682       -1.1603518187  MEMB      149             0.0000000000
     18554       149  PYPG      H16X           23.1832022984      -21.4088721268       -0.2177252556  MEMB      149             0.0000000000
     18555       149  PYPG      H16Y           23.2611447750      -19.7521740243       -0.9655743102  MEMB      149             0.0000000000
     18556       149  PYPG      H16Z           24.1666555788      -21.1643437228       -1.6705401858  MEMB      149             0.0000000000
     18557       150  POPE      N              29.1246702424       -1.5980955966      -18.6411805401  MEMB      150             0.0000000000
     18558       150  POPE      HN1            28.2720187803       -2.1841694142      -18.5705660953  MEMB      150             0.0000000000
     18559       150  POPE      HN2            28.8149793913       -0.6103224345      -18.6942760607  MEMB      150             0.0000000000
     18560       150  POPE      HN3            29.6606076554       -1.8225706393      -19.5088650523  MEMB      150             0.0000000000
     18561       150  POPE      C12            30.1064904660       -1.8161411951      -17.5101040642  MEMB      150             0.0000000000
     18562       150  POPE      H12A           29.6251068762       -1.9868903327      -16.5373702262  MEMB      150             0.0000000000
     18563       150  POPE      H12B           30.7602651803       -0.9265641583      -17.4595245982  MEMB      150             0.0000000000
     18564       150  POPE      C11            30.9124252552       -3.0692205849      -17.6944563762  MEMB      150             0.0000000000
     18565       150  POPE      H11A           30.2270192452       -3.9574671928      -17.7221054243  MEMB      150             0.0000000000
     18566       150  POPE      H11B           31.5682756641       -3.1769612408      -16.8042516001  MEMB      150             0.0000000000
     18567       150  POPE      P              31.9960794969       -4.1422165567      -19.7514585097  MEMB      150             0.0000000000
     18568       150  POPE      O13            33.0857609339       -3.8410356677      -20.6892347299  MEMB      150             0.0000000000
     18569       150  POPE      O14            30.6856823962       -4.5950961550      -20.2607432213  MEMB      150             0.0000000000
     18570       150  POPE      O11            32.5612115374       -5.1876449471      -18.7313559604  MEMB      150             0.0000000000
     18571       150  POPE      O12            31.7201011420       -2.8877988979      -18.8439536870  MEMB      150             0.0000000000
     18572       150  POPE      C1             33.6749732196       -4.7479893282      -17.9373699396  MEMB      150             0.0000000000
     18573       150  POPE      HA             33.5580933804       -3.7107415472      -17.5109348794  MEMB      150             0.0000000000
     18574       150  POPE      HB             34.6268596914       -4.8104149452      -18.4851446631  MEMB      150             0.0000000000
     18575       150  POPE      C2             33.6652305532       -5.5914173299      -16.7145459413  MEMB      150             0.0000000000
     18576       150  POPE      HS             33.6999220083       -6.6709394630      -17.0237933051  MEMB      150             0.0000000000
     18577       150  POPE      O21            32.3679836073       -5.1258198590      -16.1775397983  MEMB      150             0.0000000000
     18578       150  POPE      C21            32.1571850937       -5.8595288354      -15.1644372096  MEMB      150             0.0000000000
     18579       150  POPE      O22            33.0394989719       -6.6414995292      -14.8611060544  MEMB      150             0.0000000000
     18580       150  POPE      C22            30.6881438664       -5.6335714146      -14.5299451578  MEMB      150             0.0000000000
     18581       150  POPE      H2R            30.1306398927       -5.2560316300      -15.3934353177  MEMB      150             0.0000000000
     18582       150  POPE      H2S            30.8964009155       -4.8738614595      -13.7586198141  MEMB      150             0.0000000000
     18583       150  POPE      C3             34.8655717761       -5.3021343707      -15.7796460646  MEMB      150             0.0000000000
     18584       150  POPE      HX             35.7305960228       -5.3465231026      -16.4362839609  MEMB      150             0.0000000000
     18585       150  POPE      HY             35.1565137877       -6.0515719775      -14.9943639832  MEMB      150             0.0000000000
     18586       150  POPE      O31            34.4377040155       -4.0301248704      -15.2601182616  MEMB      150             0.0000000000
     18587       150  POPE      C31            33.8843299425       -3.8634483856      -14.0378372161  MEMB      150             0.0000000000
     18588       150  POPE      O32            33.8017222464       -4.7563486666      -13.2146762195  MEMB      150             0.0000000000
     18589       150  POPE      C32            33.9385209100       -2.3315574284      -13.6907610798  MEMB      150             0.0000000000
     18590       150  POPE      H2X            33.3429055166       -1.8595734485      -14.4705509153  MEMB      150             0.0000000000
     18591       150  POPE      H2Y            34.8539794405       -1.8138207999      -13.9010641250  MEMB      150             0.0000000000
     18592       150  POPE      C23            29.5484135193       -6.6462825130      -13.9807863232  MEMB      150             0.0000000000
     18593       150  POPE      H3R            29.7688681789       -7.6122298736      -13.6155900706  MEMB      150             0.0000000000
     18594       150  POPE      H3S            29.1139474079       -7.3352315021      -14.7152559671  MEMB      150             0.0000000000
     18595       150  POPE      C24            28.5799838080       -6.2254287405      -12.8610190808  MEMB      150             0.0000000000
     18596       150  POPE      H4R            27.9347375632       -7.1564822382      -12.8034476983  MEMB      150             0.0000000000
     18597       150  POPE      H4S            28.1855010357       -5.2937021766      -13.2426918533  MEMB      150             0.0000000000
     18598       150  POPE      C25            29.0607997814       -5.9417085803      -11.4303818535  MEMB      150             0.0000000000
     18599       150  POPE      H5R            30.1041200459       -5.5619516379      -11.4263734758  MEMB      150             0.0000000000
     18600       150  POPE      H5S            28.9615600942       -7.0265087726      -11.2550518366  MEMB      150             0.0000000000
     18601       150  POPE      C26            28.2723929935       -5.9863123954      -10.1083089801  MEMB      150             0.0000000000
     18602       150  POPE      H6R            27.6446555689       -6.9311722299      -10.0321863193  MEMB      150             0.0000000000
     18603       150  POPE      H6S            27.6307383999       -5.1348974899      -10.2651117628  MEMB      150             0.0000000000
     18604       150  POPE      C27            28.9939897512       -5.9094347644       -8.7220194362  MEMB      150             0.0000000000
     18605       150  POPE      H7R            29.1375550138       -6.9119351143       -8.3186334779  MEMB      150             0.0000000000
     18606       150  POPE      H7S            28.1833293299       -5.6062233883       -8.0450274328  MEMB      150             0.0000000000
     18607       150  POPE      C28            30.2652215025       -5.0452155226       -8.4429666918  MEMB      150             0.0000000000
     18608       150  POPE      H8R            30.0304781630       -4.0117427714       -8.6287527565  MEMB      150             0.0000000000
     18609       150  POPE      H8S            31.1898492395       -5.1806279746       -9.0312154004  MEMB      150             0.0000000000
     18610       150  POPE      C29            30.6975477400       -5.3346392275       -7.0422384107  MEMB      150             0.0000000000
     18611       150  POPE      H91            30.1169078137       -6.1498251189       -6.5838866380  MEMB      150             0.0000000000
     18612       150  POPE      C210           31.8494357457       -4.9817423974       -6.4638743740  MEMB      150             0.0000000000
     18613       150  POPE      H101           32.1106016098       -5.5260870314       -5.5394015209  MEMB      150             0.0000000000
     18614       150  POPE      C211           32.9804490870       -4.1728461373       -7.0671345610  MEMB      150             0.0000000000
     18615       150  POPE      H11R           32.6484582531       -3.4701086912       -7.8549911838  MEMB      150             0.0000000000
     18616       150  POPE      H11S           33.7783985537       -4.8235021878       -7.5065172322  MEMB      150             0.0000000000
     18617       150  POPE      C212           33.5805449031       -3.3216148503       -5.9359003993  MEMB      150             0.0000000000
     18618       150  POPE      H12R           34.3788708612       -2.6127841457       -6.2238847690  MEMB      150             0.0000000000
     18619       150  POPE      H12S           34.0807484002       -4.1100459302       -5.4049843748  MEMB      150             0.0000000000
     18620       150  POPE      C213           32.5910458836       -2.6225608697       -4.9803890341  MEMB      150             0.0000000000
     18621       150  POPE      H13R           31.8658471616       -3.3566680124       -4.5555553868  MEMB      150             0.0000000000
     18622       150  POPE      H13S           32.0933010607       -1.8019917561       -5.5059843534  MEMB      150             0.0000000000
     18623       150  POPE      C214           33.1716675558       -1.9635560620       -3.7640448306  MEMB      150             0.0000000000
     18624       150  POPE      H14R           32.4442145554       -1.4412142098       -3.1186478568  MEMB      150             0.0000000000
     18625       150  POPE      H14S           34.0381640266       -1.2740079402       -3.9748016511  MEMB      150             0.0000000000
     18626       150  POPE      C215           33.6527392454       -3.0665886465       -2.9154656624  MEMB      150             0.0000000000
     18627       150  POPE      H15R           34.2009515241       -2.4575902560       -2.3007226548  MEMB      150             0.0000000000
     18628       150  POPE      H15S           34.3750441500       -3.5029155546       -3.5766821941  MEMB      150             0.0000000000
     18629       150  POPE      C216           32.7979578654       -4.2159432653       -2.3286734730  MEMB      150             0.0000000000
     18630       150  POPE      H16R           32.8723790895       -5.0110262595       -3.1030257674  MEMB      150             0.0000000000
     18631       150  POPE      H16S           31.7952191144       -3.7893516710       -2.2086983501  MEMB      150             0.0000000000
     18632       150  POPE      C217           33.1258194863       -4.9263053242       -0.9970975304  MEMB      150             0.0000000000
     18633       150  POPE      H17R           34.1472182755       -5.3696370852       -0.8686922817  MEMB      150             0.0000000000
     18634       150  POPE      H17S           32.5812790868       -5.8777311379       -0.8785276143  MEMB      150             0.0000000000
     18635       150  POPE      C218           32.8089896560       -4.0145660787        0.1617137581  MEMB      150             0.0000000000
     18636       150  POPE      H18R           32.3326490376       -4.4723314302        1.0417613473  MEMB      150             0.0000000000
     18637       150  POPE      H18S           32.9495914838       -2.9310323578        0.2302731090  MEMB      150             0.0000000000
     18638       150  POPE      H18T           33.8448522902       -3.9717891819        0.3760769729  MEMB      150             0.0000000000
     18639       150  POPE      C33            33.8213634984       -1.8429666715      -12.2203617291  MEMB      150             0.0000000000
     18640       150  POPE      H3X            33.7209617249       -0.7390939890      -12.2317383662  MEMB      150             0.0000000000
     18641       150  POPE      H3Y            34.6844406400       -1.9451360906      -11.5350256212  MEMB      150             0.0000000000
     18642       150  POPE      C34            32.6457191806       -2.5002714953      -11.5894111555  MEMB      150             0.0000000000
     18643       150  POPE      H4X            32.6460623954       -2.2552189849      -10.5099960480  MEMB      150             0.0000000000
     18644       150  POPE      H4Y            32.7157993028       -3.6071033988      -11.6689858947  MEMB      150             0.0000000000
     18645       150  POPE      C35            31.4477374231       -1.9180000752      -12.2984288560  MEMB      150             0.0000000000
     18646       150  POPE      H5X            31.4803363721       -2.0731209230      -13.3968843158  MEMB      150             0.0000000000
     18647       150  POPE      H5Y            31.4475140442       -0.8233469728      -12.0817226755  MEMB      150             0.0000000000
     18648       150  POPE      C36            30.1844235213       -2.5173610413      -11.8349051372  MEMB      150             0.0000000000
     18649       150  POPE      H6X            30.3080673174       -3.5652922756      -11.4874267255  MEMB      150             0.0000000000
     18650       150  POPE      H6Y            29.4285830222       -2.5330289532      -12.6682283892  MEMB      150             0.0000000000
     18651       150  POPE      C37            29.6068187776       -1.6993425392      -10.7438835421  MEMB      150             0.0000000000
     18652       150  POPE      H7X            29.5446853677       -0.5954260400      -10.8789418530  MEMB      150             0.0000000000
     18653       150  POPE      H7Y            30.0160110570       -1.8986198840       -9.7368571501  MEMB      150             0.0000000000
     18654       150  POPE      C38            28.2802440168       -2.2489196774      -10.8597157251  MEMB      150             0.0000000000
     18655       150  POPE      H8X            28.1561581019       -3.3234110686      -11.0856935933  MEMB      150             0.0000000000
     18656       150  POPE      H8Y            27.6690671006       -1.6476759406      -11.6165363672  MEMB      150             0.0000000000
     18657       150  POPE      C39            27.7020308181       -2.2579789788       -9.5344386126  MEMB      150             0.0000000000
     18658       150  POPE      H9X            26.8663708904       -2.9094731009       -9.5620198495  MEMB      150             0.0000000000
     18659       150  POPE      H9Y            27.3888471169       -1.2676200185       -9.7985697254  MEMB      150             0.0000000000
     18660       150  POPE      C310           28.3140906084       -2.5598637508       -8.1452493415  MEMB      150             0.0000000000
     18661       150  POPE      H10X           29.3284152308       -2.2195973732       -7.9968863707  MEMB      150             0.0000000000
     18662       150  POPE      H10Y           27.9419168338       -3.5968731480       -8.0269197250  MEMB      150             0.0000000000
     18663       150  POPE      C311           27.9416639687       -1.8782250218       -6.8559346417  MEMB      150             0.0000000000
     18664       150  POPE      H11X           26.9549960047       -1.8967194597       -7.3054711744  MEMB      150             0.0000000000
     18665       150  POPE      H11Y           27.9041561562       -0.8666015713       -6.4429064170  MEMB      150             0.0000000000
     18666       150  POPE      C312           28.3086627257       -2.3587954247       -5.4550384717  MEMB      150             0.0000000000
     18667       150  POPE      H12X           27.7426836594       -1.8956475033       -4.5596561335  MEMB      150             0.0000000000
     18668       150  POPE      H12Y           29.2679475399       -1.8903956217       -5.4367611937  MEMB      150             0.0000000000
     18669       150  POPE      C313           28.0594424998       -3.8084888324       -5.4210253116  MEMB      150             0.0000000000
     18670       150  POPE      H13X           27.8072144989       -4.3769973731       -6.3181907501  MEMB      150             0.0000000000
     18671       150  POPE      H13Y           27.0627585833       -3.6943994957       -5.2068565170  MEMB      150             0.0000000000
     18672       150  POPE      C314           28.1822543334       -4.3449593980       -4.0559378354  MEMB      150             0.0000000000
     18673       150  POPE      H14X           27.8171031245       -3.5524165089       -3.3544348115  MEMB      150             0.0000000000
     18674       150  POPE      H14Y           29.2585778190       -4.2368282826       -3.9367844603  MEMB      150             0.0000000000
     18675       150  POPE      C315           27.5881503250       -5.7808255155       -3.8621036514  MEMB      150             0.0000000000
     18676       150  POPE      H15X           28.3415903634       -6.0065558453       -3.0895112826  MEMB      150             0.0000000000
     18677       150  POPE      H15Y           27.7133040049       -6.4072978156       -4.7446668943  MEMB      150             0.0000000000
     18678       150  POPE      C316           26.1990540792       -6.3245670576       -3.3600755366  MEMB      150             0.0000000000
     18679       150  POPE      H16X           26.1743744423       -7.1036051940       -2.5876495287  MEMB      150             0.0000000000
     18680       150  POPE      H16Y           25.2707586860       -6.1320601055       -3.9384754085  MEMB      150             0.0000000000
     18681       150  POPE      H16Z           25.8746343691       -5.6764604250       -2.5917899934  MEMB      150             0.0000000000
     18682       151  PMPE      N             -24.7778544592      -18.1949532255      -19.5133914433  MEMB      151             0.0000000000
     18683       151  PMPE      HN1           -25.2797422117      -18.3523457452      -20.4052326235  MEMB      151             0.0000000000
     18684       151  PMPE      HN2           -25.4032897901      -18.5555075974      -18.7694860650  MEMB      151             0.0000000000
     18685       151  PMPE      HN3           -24.7653376079      -17.1459105647      -19.3598820669  MEMB      151             0.0000000000
     18686       151  PMPE      C12           -23.4004491037      -18.7690513566      -19.4197927182  MEMB      151             0.0000000000
     18687       151  PMPE      H12A          -22.9057825899      -18.2419420934      -18.5743254358  MEMB      151             0.0000000000
     18688       151  PMPE      H12B          -22.8568624513      -18.5664176508      -20.3708432881  MEMB      151             0.0000000000
     18689       151  PMPE      C11           -23.4496551880      -20.2698168396      -19.1395192788  MEMB      151             0.0000000000
     18690       151  PMPE      H11A          -24.1015831137      -20.8305031625      -19.8391929540  MEMB      151             0.0000000000
     18691       151  PMPE      H11B          -23.9018288527      -20.4255506858      -18.1368712448  MEMB      151             0.0000000000
     18692       151  PMPE      P             -21.7772319143      -22.2583804587      -18.7948690229  MEMB      151             0.0000000000
     18693       151  PMPE      O13           -20.4541505257      -22.6504389180      -19.3566019655  MEMB      151             0.0000000000
     18694       151  PMPE      O14           -22.9227661596      -23.1482341602      -19.0880088160  MEMB      151             0.0000000000
     18695       151  PMPE      O11           -21.7347374108      -21.9664231300      -17.2389350391  MEMB      151             0.0000000000
     18696       151  PMPE      O12           -22.1167790045      -20.7644568149      -19.2239036201  MEMB      151             0.0000000000
     18697       151  PMPE      C1            -20.5230994675      -21.4344174041      -16.7107878143  MEMB      151             0.0000000000
     18698       151  PMPE      HA            -19.9726837070      -20.7902546842      -17.4436160640  MEMB      151             0.0000000000
     18699       151  PMPE      HB            -19.8959090545      -22.3214906166      -16.5142964860  MEMB      151             0.0000000000
     18700       151  PMPE      C2            -20.7334842140      -20.5539704339      -15.4226769684  MEMB      151             0.0000000000
     18701       151  PMPE      HS            -19.7240898234      -20.2593920361      -15.0189508695  MEMB      151             0.0000000000
     18702       151  PMPE      O21           -21.5777989383      -21.2010495794      -14.4285419062  MEMB      151             0.0000000000
     18703       151  PMPE      C21           -20.8894431596      -22.1273118061      -13.8168588500  MEMB      151             0.0000000000
     18704       151  PMPE      O22           -19.7220447757      -22.2854031295      -13.9329448522  MEMB      151             0.0000000000
     18705       151  PMPE      C22           -21.6409562093      -22.9514643155      -12.7845596551  MEMB      151             0.0000000000
     18706       151  PMPE      H2R           -21.7488857806      -23.9586429504      -13.1879131457  MEMB      151             0.0000000000
     18707       151  PMPE      H2S           -22.5458845563      -22.3648179866      -12.5583782109  MEMB      151             0.0000000000
     18708       151  PMPE      C3            -21.4556575956      -19.2440363698      -15.7747431952  MEMB      151             0.0000000000
     18709       151  PMPE      HX            -22.3900489130      -19.6008952859      -16.2652816348  MEMB      151             0.0000000000
     18710       151  PMPE      HY            -20.9007684170      -18.6513327037      -16.5285324920  MEMB      151             0.0000000000
     18711       151  PMPE      O31           -21.8026964337      -18.4684492186      -14.6067365302  MEMB      151             0.0000000000
     18712       151  PMPE      C31           -20.8140036952      -17.7882488352      -14.0178972885  MEMB      151             0.0000000000
     18713       151  PMPE      O32           -19.6738894602      -17.6812592307      -14.4150427759  MEMB      151             0.0000000000
     18714       151  PMPE      C32           -21.3747153148      -17.0554890584      -12.7914865524  MEMB      151             0.0000000000
     18715       151  PMPE      H2X           -22.3942028906      -16.6983871777      -13.0367240362  MEMB      151             0.0000000000
     18716       151  PMPE      H2Y           -20.7283915052      -16.1768241860      -12.5635670226  MEMB      151             0.0000000000
     18717       151  PMPE      C23           -20.9240946656      -23.2132903287      -11.4520234163  MEMB      151             0.0000000000
     18718       151  PMPE      H3R           -20.4519727410      -22.2384610058      -11.5706713164  MEMB      151             0.0000000000
     18719       151  PMPE      H3S           -20.0513845093      -23.8853442089      -11.3914762502  MEMB      151             0.0000000000
     18720       151  PMPE      C24           -21.9251260793      -23.4084381287      -10.2420853605  MEMB      151             0.0000000000
     18721       151  PMPE      H4R           -22.5075154470      -24.2560529179      -10.6571757873  MEMB      151             0.0000000000
     18722       151  PMPE      H4S           -22.5803239730      -22.5162962216      -10.1331999752  MEMB      151             0.0000000000
     18723       151  PMPE      C25           -21.5515685246      -24.0110973005       -8.8193568037  MEMB      151             0.0000000000
     18724       151  PMPE      H5R           -20.7607716292      -24.7690900843       -8.9643432620  MEMB      151             0.0000000000
     18725       151  PMPE      H5S           -22.4796974785      -24.4070929211       -8.3583692113  MEMB      151             0.0000000000
     18726       151  PMPE      C26           -21.0117271731      -23.1872054615       -7.6374070953  MEMB      151             0.0000000000
     18727       151  PMPE      H6R           -21.6832458425      -22.3828077278       -7.2840007811  MEMB      151             0.0000000000
     18728       151  PMPE      H6S           -20.0962827954      -22.9165273013       -8.1853954962  MEMB      151             0.0000000000
     18729       151  PMPE      C27           -20.3198164939      -23.8127472239       -6.4086219686  MEMB      151             0.0000000000
     18730       151  PMPE      H7R           -19.3825894211      -24.1414090534       -6.8889743950  MEMB      151             0.0000000000
     18731       151  PMPE      H7S           -20.9639897145      -24.6005567858       -6.0398880956  MEMB      151             0.0000000000
     18732       151  PMPE      C28           -19.8158991367      -22.9447384714       -5.2033149184  MEMB      151             0.0000000000
     18733       151  PMPE      H8R           -18.8170752114      -22.8404183137       -5.6817548843  MEMB      151             0.0000000000
     18734       151  PMPE      H8S           -19.0944272562      -23.3269905765       -4.4695177191  MEMB      151             0.0000000000
     18735       151  PMPE      C29           -20.8625824126      -21.7213206290       -4.7460410695  MEMB      151             0.0000000000
     18736       151  PMPE      H9R           -21.8689067442      -22.0600743243       -4.9463415882  MEMB      151             0.0000000000
     18737       151  PMPE      C217          -20.9896054887      -20.0907436910       -4.9989188966  MEMB      151             0.0000000000
     18738       151  PMPE      H17R          -21.9831262802      -19.7688248165       -5.2270458114  MEMB      151             0.0000000000
     18739       151  PMPE      H17S          -20.2097530877      -19.4355968287       -5.3586299908  MEMB      151             0.0000000000
     18740       151  PMPE      C210          -20.7287286552      -20.6904883416       -3.6812310147  MEMB      151             0.0000000000
     18741       151  PMPE      H10R          -21.5402515184      -20.4458128251       -2.9887814359  MEMB      151             0.0000000000
     18742       151  PMPE      C211          -19.4376062663      -20.4515604396       -3.1763973584  MEMB      151             0.0000000000
     18743       151  PMPE      H11R          -19.2880959182      -19.4268458606       -3.4439043531  MEMB      151             0.0000000000
     18744       151  PMPE      H11S          -18.4656652274      -20.2134276054       -3.5366423398  MEMB      151             0.0000000000
     18745       151  PMPE      C212          -19.1408190716      -21.4591157022       -2.2075670625  MEMB      151             0.0000000000
     18746       151  PMPE      H12R          -19.3099345490      -22.5026271091       -2.5973496217  MEMB      151             0.0000000000
     18747       151  PMPE      H12S          -19.8433082555      -21.2034855095       -1.3885434748  MEMB      151             0.0000000000
     18748       151  PMPE      C213          -17.6802984471      -21.3785929036       -1.8651955471  MEMB      151             0.0000000000
     18749       151  PMPE      H13R          -17.0703388462      -20.5115564155       -1.5171720782  MEMB      151             0.0000000000
     18750       151  PMPE      H13S          -17.2509862266      -21.0524125603       -2.6998266739  MEMB      151             0.0000000000
     18751       151  PMPE      C214          -17.1111360146      -22.6172222973       -1.3757238582  MEMB      151             0.0000000000
     18752       151  PMPE      H14R          -16.0214422811      -22.6548937543       -1.2901309938  MEMB      151             0.0000000000
     18753       151  PMPE      H14S          -17.4516086065      -23.6878760307       -1.5400283138  MEMB      151             0.0000000000
     18754       151  PMPE      C215          -17.6996005284      -21.7941108156       -0.3175204148  MEMB      151             0.0000000000
     18755       151  PMPE      H15R          -17.9806335610      -22.8803129753       -0.0258231373  MEMB      151             0.0000000000
     18756       151  PMPE      H15S          -18.7942741552      -21.9801235492       -0.1380325126  MEMB      151             0.0000000000
     18757       151  PMPE      C216          -16.7460882019      -20.5075555535        0.7210063948  MEMB      151             0.0000000000
     18758       151  PMPE      H16R          -17.1951605687      -19.5624029569        0.8390767103  MEMB      151             0.0000000000
     18759       151  PMPE      H16S          -16.6378008070      -20.7094398025        1.8692035145  MEMB      151             0.0000000000
     18760       151  PMPE      H16T          -15.7073949083      -20.6162654763        1.1937192104  MEMB      151             0.0000000000
     18761       151  PMPE      C33           -21.5701520303      -17.9472718456      -11.5729640787  MEMB      151             0.0000000000
     18762       151  PMPE      H3X           -20.5960333819      -18.4340694744      -11.3634046449  MEMB      151             0.0000000000
     18763       151  PMPE      H3Y           -22.3486417350      -18.6919595764      -11.8093046774  MEMB      151             0.0000000000
     18764       151  PMPE      C34           -22.0174858396      -17.1365981167      -10.3651888583  MEMB      151             0.0000000000
     18765       151  PMPE      H4X           -22.8160606856      -16.4230693652      -10.6199635261  MEMB      151             0.0000000000
     18766       151  PMPE      H4Y           -21.1012967911      -16.6300593645      -10.1518275851  MEMB      151             0.0000000000
     18767       151  PMPE      C35           -22.3544351133      -17.8627208886       -9.0818832307  MEMB      151             0.0000000000
     18768       151  PMPE      H5X           -22.7028502086      -17.1592144434       -8.3022509532  MEMB      151             0.0000000000
     18769       151  PMPE      H5Y           -21.4534369062      -18.3489331247       -8.6712442851  MEMB      151             0.0000000000
     18770       151  PMPE      C36           -23.4823545024      -18.8028985330       -9.3793816052  MEMB      151             0.0000000000
     18771       151  PMPE      H6X           -23.1020631321      -19.6012271691      -10.0553777238  MEMB      151             0.0000000000
     18772       151  PMPE      H6Y           -24.2611740021      -18.2123982992       -9.9186400034  MEMB      151             0.0000000000
     18773       151  PMPE      C37           -24.0319829783      -19.4724661506       -8.1391720617  MEMB      151             0.0000000000
     18774       151  PMPE      H7X           -24.6209575229      -18.7574714840       -7.5337814127  MEMB      151             0.0000000000
     18775       151  PMPE      H7Y           -23.1545474413      -19.8035149834       -7.5380564657  MEMB      151             0.0000000000
     18776       151  PMPE      C38           -24.9211401337      -20.6257283727       -8.5895471114  MEMB      151             0.0000000000
     18777       151  PMPE      H8X           -24.3041683354      -21.3679875885       -9.1452734536  MEMB      151             0.0000000000
     18778       151  PMPE      H8Y           -25.6814073204      -20.2194178015       -9.2897430079  MEMB      151             0.0000000000
     18779       151  PMPE      C39           -25.6815827335      -21.3304483623       -7.4855885969  MEMB      151             0.0000000000
     18780       151  PMPE      H9X           -26.5165312413      -21.8729859029       -7.9643043007  MEMB      151             0.0000000000
     18781       151  PMPE      H9Y           -26.1957502773      -20.6196118386       -6.8054628110  MEMB      151             0.0000000000
     18782       151  PMPE      C310          -24.7513802938      -22.2710844537       -6.7255100236  MEMB      151             0.0000000000
     18783       151  PMPE      H10X          -23.9121657963      -21.6758954177       -6.3149217206  MEMB      151             0.0000000000
     18784       151  PMPE      H10Y          -24.3109410405      -23.0481045195       -7.3939443339  MEMB      151             0.0000000000
     18785       151  PMPE      C311          -25.4955092094      -22.8951011811       -5.5676433512  MEMB      151             0.0000000000
     18786       151  PMPE      H11X          -26.0550173703      -23.7190564358       -5.9474976288  MEMB      151             0.0000000000
     18787       151  PMPE      H11Y          -26.2499482714      -22.1764923804       -5.1911787027  MEMB      151             0.0000000000
     18788       151  PMPE      C312          -24.6298223186      -23.4655832828       -4.4608589199  MEMB      151             0.0000000000
     18789       151  PMPE      H12X          -25.3063692792      -23.8692351023       -3.6789665594  MEMB      151             0.0000000000
     18790       151  PMPE      H12Y          -24.0870835447      -22.6057194741       -4.0212860650  MEMB      151             0.0000000000
     18791       151  PMPE      C313          -23.6781065999      -24.6009282052       -4.8849204788  MEMB      151             0.0000000000
     18792       151  PMPE      H13X          -23.1094224834      -24.3302675466       -5.7988169057  MEMB      151             0.0000000000
     18793       151  PMPE      H13Y          -24.2631653710      -25.5013641296       -5.1659089700  MEMB      151             0.0000000000
     18794       151  PMPE      C314          -22.7021043001      -24.9101075964       -3.7386801038  MEMB      151             0.0000000000
     18795       151  PMPE      H14X          -22.3874311235      -23.9360633176       -3.3001209719  MEMB      151             0.0000000000
     18796       151  PMPE      H14Y          -21.7740787518      -25.4018501942       -4.1061291659  MEMB      151             0.0000000000
     18797       151  PMPE      C315          -23.3370595388      -25.6938053643       -2.5834828214  MEMB      151             0.0000000000
     18798       151  PMPE      H15X          -24.2475068105      -25.1509369319       -2.2399990541  MEMB      151             0.0000000000
     18799       151  PMPE      H15Y          -22.6168525595      -25.6933755106       -1.7349733676  MEMB      151             0.0000000000
     18800       151  PMPE      C316          -23.7525714959      -27.1216167532       -2.9236992413  MEMB      151             0.0000000000
     18801       151  PMPE      H16X          -22.9049069474      -27.7238116292       -3.3013094864  MEMB      151             0.0000000000
     18802       151  PMPE      H16Y          -24.5095032977      -27.1042236012       -3.7219690014  MEMB      151             0.0000000000
     18803       151  PMPE      H16Z          -24.1960402784      -27.6144432729       -2.0329433139  MEMB      151             0.0000000000
     18804       152  QMPE      N              13.3758328935      -28.1767346704      -21.8807965300  MEMB      152             0.0000000000
     18805       152  QMPE      HN1            13.4742246252      -27.6711856062      -22.7704094202  MEMB      152             0.0000000000
     18806       152  QMPE      HN2            13.0299606852      -29.1494825303      -22.0212913413  MEMB      152             0.0000000000
     18807       152  QMPE      HN3            12.6587509863      -27.7471205282      -21.2484940281  MEMB      152             0.0000000000
     18808       152  QMPE      C12            14.6380467489      -28.0782071170      -21.0693656455  MEMB      152             0.0000000000
     18809       152  QMPE      H12A           15.3638920269      -27.4472548386      -21.6203114538  MEMB      152             0.0000000000
     18810       152  QMPE      H12B           15.0770890037      -29.0839269696      -20.9154877765  MEMB      152             0.0000000000
     18811       152  QMPE      C11            14.2650679948      -27.4267869407      -19.7372393313  MEMB      152             0.0000000000
     18812       152  QMPE      H11A           14.0549854357      -26.3458750783      -19.9139940050  MEMB      152             0.0000000000
     18813       152  QMPE      H11B           15.1348215934      -27.5036438579      -19.0410918354  MEMB      152             0.0000000000
     18814       152  QMPE      P              13.0858264004      -28.8817731147      -17.8835701945  MEMB      152             0.0000000000
     18815       152  QMPE      O13            13.9656562644      -30.0457870995      -18.0810197806  MEMB      152             0.0000000000
     18816       152  QMPE      O14            11.7032458013      -29.1517723872      -17.4575205494  MEMB      152             0.0000000000
     18817       152  QMPE      O11            13.7292531149      -27.8001445609      -16.8969233769  MEMB      152             0.0000000000
     18818       152  QMPE      O12            13.0758254470      -28.0241372401      -19.2252128429  MEMB      152             0.0000000000
     18819       152  QMPE      C1             13.0263578158      -26.5601715116      -16.6839336590  MEMB      152             0.0000000000
     18820       152  QMPE      HA             11.9692045074      -26.5728664560      -17.0545317780  MEMB      152             0.0000000000
     18821       152  QMPE      HB             13.5405043110      -25.7226171789      -17.2059987896  MEMB      152             0.0000000000
     18822       152  QMPE      C2             12.9858816916      -26.1845758846      -15.1862536002  MEMB      152             0.0000000000
     18823       152  QMPE      HS             12.5284109629      -25.1612257252      -15.1675094095  MEMB      152             0.0000000000
     18824       152  QMPE      O21            14.3211773041      -26.2626108944      -14.6131712225  MEMB      152             0.0000000000
     18825       152  QMPE      C21            14.8216998330      -25.1614896509      -14.1116261017  MEMB      152             0.0000000000
     18826       152  QMPE      O22            14.3701143549      -24.0683146828      -14.2692004800  MEMB      152             0.0000000000
     18827       152  QMPE      C22            16.1375847914      -25.3932189458      -13.4330310650  MEMB      152             0.0000000000
     18828       152  QMPE      H2R            16.9120496978      -25.2369161876      -14.2137420346  MEMB      152             0.0000000000
     18829       152  QMPE      H2S            16.1292300326      -26.4411785752      -13.0998849185  MEMB      152             0.0000000000
     18830       152  QMPE      C3             12.1123103923      -27.1794350763      -14.3827019971  MEMB      152             0.0000000000
     18831       152  QMPE      HX             12.3310884222      -28.1847367432      -14.8015394013  MEMB      152             0.0000000000
     18832       152  QMPE      HY             11.0170964647      -27.0077142795      -14.4656075526  MEMB      152             0.0000000000
     18833       152  QMPE      O31            12.5180077629      -27.0930030724      -13.0112848794  MEMB      152             0.0000000000
     18834       152  QMPE      C31            12.1358003742      -28.0849416483      -12.2711210081  MEMB      152             0.0000000000
     18835       152  QMPE      O32            11.3612342183      -28.9726744497      -12.5754353364  MEMB      152             0.0000000000
     18836       152  QMPE      C32            12.8934157809      -27.9538418399      -10.9743556278  MEMB      152             0.0000000000
     18837       152  QMPE      H2X            12.7736227322      -28.9090333417      -10.4268316541  MEMB      152             0.0000000000
     18838       152  QMPE      H2Y            13.9647737716      -27.8064294848      -11.2396644486  MEMB      152             0.0000000000
     18839       152  QMPE      C23            16.3445538866      -24.4617377921      -12.2170164441  MEMB      152             0.0000000000
     18840       152  QMPE      H3R            15.4085296010      -24.4725364976      -11.6149722387  MEMB      152             0.0000000000
     18841       152  QMPE      H3S            16.5491648026      -23.4008352103      -12.4752558518  MEMB      152             0.0000000000
     18842       152  QMPE      C24            17.4548558225      -24.9939481162      -11.3285807464  MEMB      152             0.0000000000
     18843       152  QMPE      H4R            18.2655151774      -25.4340920668      -11.9458293542  MEMB      152             0.0000000000
     18844       152  QMPE      H4S            16.9836346662      -25.8126172871      -10.7399067397  MEMB      152             0.0000000000
     18845       152  QMPE      C25            18.0197201538      -23.9522250873      -10.3705335345  MEMB      152             0.0000000000
     18846       152  QMPE      H5R            17.1747519479      -23.5117911656       -9.8533075985  MEMB      152             0.0000000000
     18847       152  QMPE      H5S            18.6074882878      -23.1567909881      -10.8820547903  MEMB      152             0.0000000000
     18848       152  QMPE      C26            18.8813104752      -24.5674933352       -9.2871587636  MEMB      152             0.0000000000
     18849       152  QMPE      H6R            19.7086951414      -23.9110601383       -8.9661574970  MEMB      152             0.0000000000
     18850       152  QMPE      H6S            19.3130540745      -25.3416008457       -9.7905227745  MEMB      152             0.0000000000
     18851       152  QMPE      C27            18.2254234847      -25.4701327814       -8.2426221446  MEMB      152             0.0000000000
     18852       152  QMPE      H7R            18.8904506207      -26.2161594574       -7.7861640760  MEMB      152             0.0000000000
     18853       152  QMPE      H7S            17.2836724960      -25.9309006021       -8.6390123102  MEMB      152             0.0000000000
     18854       152  QMPE      C28            17.9060552838      -24.6431538474       -7.0857300268  MEMB      152             0.0000000000
     18855       152  QMPE      H8R            16.9505965250      -25.0049251805       -6.6743118813  MEMB      152             0.0000000000
     18856       152  QMPE      H8S            17.9690822282      -23.6726841224       -7.6581047620  MEMB      152             0.0000000000
     18857       152  QMPE      C29            18.8714212161      -24.3234840300       -6.0185513477  MEMB      152             0.0000000000
     18858       152  QMPE      H9R            19.8318175066      -24.0234249165       -6.4450499499  MEMB      152             0.0000000000
     18859       152  QMPE      C217           18.9488589383      -25.3584575162       -4.9343084887  MEMB      152             0.0000000000
     18860       152  QMPE      H17R           18.1226431072      -26.0647501654       -4.9333305683  MEMB      152             0.0000000000
     18861       152  QMPE      H17S           19.9584041430      -25.5138815536       -4.6240791559  MEMB      152             0.0000000000
     18862       152  QMPE      C210           18.5036499710      -23.9657488697       -4.5722983221  MEMB      152             0.0000000000
     18863       152  QMPE      H10R           19.1739669268      -23.2068256650       -4.1557535763  MEMB      152             0.0000000000
     18864       152  QMPE      C211           17.1178423637      -23.9927324882       -3.9910477097  MEMB      152             0.0000000000
     18865       152  QMPE      H11R           16.6627293788      -23.9708004559       -4.9692994302  MEMB      152             0.0000000000
     18866       152  QMPE      H11S           16.5480067067      -24.8774174216       -3.6854654711  MEMB      152             0.0000000000
     18867       152  QMPE      C212           16.9938645422      -22.8183603605       -2.9910670975  MEMB      152             0.0000000000
     18868       152  QMPE      H12R           17.2781130662      -21.8782634721       -3.5306715200  MEMB      152             0.0000000000
     18869       152  QMPE      H12S           17.6189900597      -22.9299523021       -2.0972319903  MEMB      152             0.0000000000
     18870       152  QMPE      C213           15.6583567646      -22.6365894777       -2.3351663902  MEMB      152             0.0000000000
     18871       152  QMPE      H13R           14.9905688855      -22.4723089723       -3.1489893891  MEMB      152             0.0000000000
     18872       152  QMPE      H13S           15.5820826821      -21.6985789244       -1.7262942560  MEMB      152             0.0000000000
     18873       152  QMPE      C214           14.7820392208      -23.8098841174       -2.1304325796  MEMB      152             0.0000000000
     18874       152  QMPE      H14R           15.1443065648      -24.3690445373       -1.2617966438  MEMB      152             0.0000000000
     18875       152  QMPE      H14S           14.6110507772      -24.4348881279       -3.0339688823  MEMB      152             0.0000000000
     18876       152  QMPE      C215           13.4607623028      -23.2227118102       -1.9198844822  MEMB      152             0.0000000000
     18877       152  QMPE      H15R           12.7234086915      -24.0759755773       -1.8635647840  MEMB      152             0.0000000000
     18878       152  QMPE      H15S           13.1409844454      -22.3563116761       -2.5259934703  MEMB      152             0.0000000000
     18879       152  QMPE      C216           13.5449595226      -22.5307627204       -0.6948774329  MEMB      152             0.0000000000
     18880       152  QMPE      H16R           12.5736310422      -22.1450898346       -0.5552842523  MEMB      152             0.0000000000
     18881       152  QMPE      H16S           14.0833394619      -21.6401814534       -0.3789059126  MEMB      152             0.0000000000
     18882       152  QMPE      H16T           13.7939851907      -23.4333312523       -0.1294097558  MEMB      152             0.0000000000
     18883       152  QMPE      C33            12.3426424518      -26.7233152928      -10.2359994670  MEMB      152             0.0000000000
     18884       152  QMPE      H3X            11.2474192814      -26.8510309968      -10.0670262321  MEMB      152             0.0000000000
     18885       152  QMPE      H3Y            12.4904484231      -25.7990395602      -10.8453124870  MEMB      152             0.0000000000
     18886       152  QMPE      C34            13.0139988872      -26.5083249897       -8.8975019593  MEMB      152             0.0000000000
     18887       152  QMPE      H4X            14.0575518788      -26.1446996932       -9.0486072627  MEMB      152             0.0000000000
     18888       152  QMPE      H4Y            13.0496129492      -27.4763836385       -8.3549725971  MEMB      152             0.0000000000
     18889       152  QMPE      C35            12.2486020163      -25.5299755302       -8.0311323425  MEMB      152             0.0000000000
     18890       152  QMPE      H5X            11.1469640041      -25.6615813431       -8.0442788472  MEMB      152             0.0000000000
     18891       152  QMPE      H5Y            12.4736057209      -24.5041130409       -8.4176220616  MEMB      152             0.0000000000
     18892       152  QMPE      C36            12.7068229057      -25.6934516074       -6.5954672272  MEMB      152             0.0000000000
     18893       152  QMPE      H6X            12.2499622895      -24.8858723442       -6.0685196240  MEMB      152             0.0000000000
     18894       152  QMPE      H6Y            13.7883506792      -25.5920740217       -6.5673880498  MEMB      152             0.0000000000
     18895       152  QMPE      C37            12.2942073728      -26.9021627765       -5.7667982461  MEMB      152             0.0000000000
     18896       152  QMPE      H7X            11.1951276552      -27.0095350258       -5.8660830342  MEMB      152             0.0000000000
     18897       152  QMPE      H7Y            12.7609302109      -27.8302085576       -6.1393120741  MEMB      152             0.0000000000
     18898       152  QMPE      C38            12.6893722468      -26.7034077179       -4.2933623883  MEMB      152             0.0000000000
     18899       152  QMPE      H8X            12.4461834216      -25.6574295429       -3.9770230987  MEMB      152             0.0000000000
     18900       152  QMPE      H8Y            12.0918650097      -27.3778801005       -3.6440847860  MEMB      152             0.0000000000
     18901       152  QMPE      C39            14.1920912678      -26.9071320577       -4.0122265103  MEMB      152             0.0000000000
     18902       152  QMPE      H9X            14.3179037018      -26.6410137917       -2.9386118693  MEMB      152             0.0000000000
     18903       152  QMPE      H9Y            14.7843398512      -26.2054658189       -4.6390889067  MEMB      152             0.0000000000
     18904       152  QMPE      C310           14.8086163739      -28.2991493737       -4.2417070855  MEMB      152             0.0000000000
     18905       152  QMPE      H10X           15.0631993285      -28.3835870014       -5.3251331159  MEMB      152             0.0000000000
     18906       152  QMPE      H10Y           14.0473095953      -29.0762299987       -4.0261955233  MEMB      152             0.0000000000
     18907       152  QMPE      C311           16.1149622533      -28.4839618893       -3.4190050878  MEMB      152             0.0000000000
     18908       152  QMPE      H11X           16.0283515064      -28.0525482767       -2.3960084107  MEMB      152             0.0000000000
     18909       152  QMPE      H11Y           16.8946620636      -27.8868241107       -3.9414563228  MEMB      152             0.0000000000
     18910       152  QMPE      C312           16.6249315745      -29.9353166457       -3.3071350263  MEMB      152             0.0000000000
     18911       152  QMPE      H12X           16.8303379116      -30.3094719047       -4.3316386495  MEMB      152             0.0000000000
     18912       152  QMPE      H12Y           15.8552061383      -30.5952323651       -2.8500430854  MEMB      152             0.0000000000
     18913       152  QMPE      C313           17.8806244408      -30.1431094015       -2.4477370050  MEMB      152             0.0000000000
     18914       152  QMPE      H13X           17.7829722423      -29.6728754903       -1.4453820834  MEMB      152             0.0000000000
     18915       152  QMPE      H13Y           18.0398478037      -31.2443335476       -2.3391259635  MEMB      152             0.0000000000
     18916       152  QMPE      C314           19.1626024312      -29.6103563901       -3.0323153368  MEMB      152             0.0000000000
     18917       152  QMPE      H14X           19.1018149978      -28.5034221161       -3.1225131550  MEMB      152             0.0000000000
     18918       152  QMPE      H14Y           19.2868924454      -30.0542953429       -4.0393448385  MEMB      152             0.0000000000
     18919       152  QMPE      C315           20.3345008777      -30.0053100018       -2.1493872844  MEMB      152             0.0000000000
     18920       152  QMPE      H15X           21.2345320643      -29.5350041406       -2.5280006742  MEMB      152             0.0000000000
     18921       152  QMPE      H15Y           20.1959844464      -29.6654196785       -1.1040708827  MEMB      152             0.0000000000
     18922       152  QMPE      H15Z           20.5279934699      -31.0938795772       -2.1802196444  MEMB      152             0.0000000000
     18923       153  PMPE      N             -18.2318811655      -27.0850357183      -21.8586308051  MEMB      153             0.0000000000
     18924       153  PMPE      HN1           -17.9702019232      -26.1925468091      -22.3140297654  MEMB      153             0.0000000000
     18925       153  PMPE      HN2           -18.8335144231      -27.6256389701      -22.5091710542  MEMB      153             0.0000000000
     18926       153  PMPE      HN3           -18.7441830550      -26.9040181304      -20.9686010701  MEMB      153             0.0000000000
     18927       153  PMPE      C12           -16.9723023368      -27.8253691779      -21.5308769726  MEMB      153             0.0000000000
     18928       153  PMPE      H12A          -16.3272966196      -27.7400689582      -22.4290610240  MEMB      153             0.0000000000
     18929       153  PMPE      H12B          -17.2446637797      -28.8895972659      -21.3745168150  MEMB      153             0.0000000000
     18930       153  PMPE      C11           -16.3244826145      -27.2675197108      -20.2469990009  MEMB      153             0.0000000000
     18931       153  PMPE      H11A          -15.9770546455      -26.2163928938      -20.4087320591  MEMB      153             0.0000000000
     18932       153  PMPE      H11B          -15.4079085440      -27.8824181539      -20.0487588118  MEMB      153             0.0000000000
     18933       153  PMPE      P             -16.7708132880      -26.9376773788      -17.6725920577  MEMB      153             0.0000000000
     18934       153  PMPE      O13           -17.7626119947      -25.9913907723      -17.1369708255  MEMB      153             0.0000000000
     18935       153  PMPE      O14           -15.3745385237      -26.5119555339      -17.7800262326  MEMB      153             0.0000000000
     18936       153  PMPE      O11           -16.8149080146      -28.2813351659      -16.8371157940  MEMB      153             0.0000000000
     18937       153  PMPE      O12           -17.2569507645      -27.3482754846      -19.1471781177  MEMB      153             0.0000000000
     18938       153  PMPE      C1            -16.8775120771      -29.5624280882      -17.4028291241  MEMB      153             0.0000000000
     18939       153  PMPE      HA            -16.3895800615      -29.6069105484      -18.4050960416  MEMB      153             0.0000000000
     18940       153  PMPE      HB            -17.9503531152      -29.7031947712      -17.5307891689  MEMB      153             0.0000000000
     18941       153  PMPE      C2            -16.2235167934      -30.6920011990      -16.5078767152  MEMB      153             0.0000000000
     18942       153  PMPE      HS            -16.3968768491      -31.6439986756      -17.0576731290  MEMB      153             0.0000000000
     18943       153  PMPE      O21           -16.7464547839      -30.8421880523      -15.1679341010  MEMB      153             0.0000000000
     18944       153  PMPE      C21           -18.0152897987      -30.7532078400      -14.9177908634  MEMB      153             0.0000000000
     18945       153  PMPE      O22           -18.9283207194      -30.7074361142      -15.6863453939  MEMB      153             0.0000000000
     18946       153  PMPE      C22           -18.4270789328      -30.5417456344      -13.5474424470  MEMB      153             0.0000000000
     18947       153  PMPE      H2R           -19.4530206919      -30.9792818931      -13.3699561974  MEMB      153             0.0000000000
     18948       153  PMPE      H2S           -18.5086010015      -29.4546858967      -13.5192777277  MEMB      153             0.0000000000
     18949       153  PMPE      C3            -14.6830585558      -30.5422266584      -16.3192096419  MEMB      153             0.0000000000
     18950       153  PMPE      HX            -14.1253746525      -30.4904895535      -17.2775691738  MEMB      153             0.0000000000
     18951       153  PMPE      HY            -14.3138137958      -31.4511220252      -15.7883541161  MEMB      153             0.0000000000
     18952       153  PMPE      O31           -14.4039735460      -29.3406471738      -15.5923613252  MEMB      153             0.0000000000
     18953       153  PMPE      C31           -14.4585471437      -29.3798338427      -14.2795026011  MEMB      153             0.0000000000
     18954       153  PMPE      O32           -14.4188020142      -30.3807675456      -13.5834181379  MEMB      153             0.0000000000
     18955       153  PMPE      C32           -14.6882982521      -27.9502176621      -13.7586532147  MEMB      153             0.0000000000
     18956       153  PMPE      H2X           -15.7397837023      -27.8085021107      -13.4918682315  MEMB      153             0.0000000000
     18957       153  PMPE      H2Y           -14.3437190034      -27.2149605955      -14.5184093919  MEMB      153             0.0000000000
     18958       153  PMPE      C23           -17.3539122152      -30.8993611329      -12.5924993822  MEMB      153             0.0000000000
     18959       153  PMPE      H3R           -16.3759413890      -31.3170305752      -12.8692368137  MEMB      153             0.0000000000
     18960       153  PMPE      H3S           -17.6503216469      -31.8442282836      -12.5938476341  MEMB      153             0.0000000000
     18961       153  PMPE      C24           -17.6881036105      -30.4354537529      -11.2135191004  MEMB      153             0.0000000000
     18962       153  PMPE      H4R           -18.6799887505      -30.8018844972      -10.8203187119  MEMB      153             0.0000000000
     18963       153  PMPE      H4S           -17.8210872939      -29.3691830929      -11.4424759996  MEMB      153             0.0000000000
     18964       153  PMPE      C25           -16.4845140819      -30.5982752818      -10.2911237553  MEMB      153             0.0000000000
     18965       153  PMPE      H5R           -16.6167226725      -29.7945149682       -9.5530379765  MEMB      153             0.0000000000
     18966       153  PMPE      H5S           -15.5398743230      -30.6590852715      -10.8611560570  MEMB      153             0.0000000000
     18967       153  PMPE      C26           -16.5199030264      -31.8298114010       -9.4997884133  MEMB      153             0.0000000000
     18968       153  PMPE      H6R           -16.4015306792      -32.7155363176      -10.1649686477  MEMB      153             0.0000000000
     18969       153  PMPE      H6S           -17.5089225153      -31.5739547559       -9.0574952354  MEMB      153             0.0000000000
     18970       153  PMPE      C27           -15.8490776790      -32.2640140544       -8.2215535708  MEMB      153             0.0000000000
     18971       153  PMPE      H7R           -14.8728200407      -32.0663857444       -8.3321408953  MEMB      153             0.0000000000
     18972       153  PMPE      H7S           -15.8786205559      -33.3569164366       -8.0959886483  MEMB      153             0.0000000000
     18973       153  PMPE      C28           -16.0420582726      -31.5830097044       -6.9236424818  MEMB      153             0.0000000000
     18974       153  PMPE      H8R           -15.3711298606      -32.0222800634       -6.1809499231  MEMB      153             0.0000000000
     18975       153  PMPE      H8S           -17.0859776121      -31.6024670509       -6.6543608847  MEMB      153             0.0000000000
     18976       153  PMPE      C29           -15.5381010519      -30.2416399800       -6.9377115304  MEMB      153             0.0000000000
     18977       153  PMPE      H9R           -15.7817751510      -29.5739890649       -7.7699700040  MEMB      153             0.0000000000
     18978       153  PMPE      C217          -14.0989884845      -30.2236313665       -6.6663484910  MEMB      153             0.0000000000
     18979       153  PMPE      H17R          -13.8910203598      -29.2999472160       -7.1245757651  MEMB      153             0.0000000000
     18980       153  PMPE      H17S          -13.5021122836      -31.1411455046       -6.5930532381  MEMB      153             0.0000000000
     18981       153  PMPE      C210          -14.9925837761      -29.6734809292       -5.6481290988  MEMB      153             0.0000000000
     18982       153  PMPE      H10R          -14.9269816822      -28.5760862681       -5.6028027589  MEMB      153             0.0000000000
     18983       153  PMPE      C211          -14.6381303939      -30.4018716759       -4.4274461817  MEMB      153             0.0000000000
     18984       153  PMPE      H11R          -13.9000187601      -29.8711018973       -3.8041903430  MEMB      153             0.0000000000
     18985       153  PMPE      H11S          -14.1121907458      -31.3564016264       -4.6515988801  MEMB      153             0.0000000000
     18986       153  PMPE      C212          -15.9410402925      -30.4760574844       -3.7156470203  MEMB      153             0.0000000000
     18987       153  PMPE      H12R          -16.6986127351      -30.9916050767       -4.3149413087  MEMB      153             0.0000000000
     18988       153  PMPE      H12S          -16.5218403853      -29.5595441308       -3.5292138928  MEMB      153             0.0000000000
     18989       153  PMPE      C213          -15.6076879017      -30.9925887641       -2.3936181039  MEMB      153             0.0000000000
     18990       153  PMPE      H13R          -14.8080919495      -30.3477265972       -1.9654766643  MEMB      153             0.0000000000
     18991       153  PMPE      H13S          -14.9494524146      -31.8796590720       -2.1624245927  MEMB      153             0.0000000000
     18992       153  PMPE      C214          -16.9669352552      -31.2746476041       -1.7038979294  MEMB      153             0.0000000000
     18993       153  PMPE      H14R          -17.9457924330      -31.8344110393       -1.8597116174  MEMB      153             0.0000000000
     18994       153  PMPE      H14S          -17.6905556017      -30.4730972781       -1.6621911937  MEMB      153             0.0000000000
     18995       153  PMPE      C215          -16.4675996052      -32.2048162413       -0.7335384513  MEMB      153             0.0000000000
     18996       153  PMPE      H15R          -15.5882767335      -32.9534155878       -0.6400551321  MEMB      153             0.0000000000
     18997       153  PMPE      H15S          -17.4195076164      -32.6876253726       -0.4603559876  MEMB      153             0.0000000000
     18998       153  PMPE      C216          -16.3787025768      -30.9036373057       -0.3792562060  MEMB      153             0.0000000000
     18999       153  PMPE      H16R          -15.8627086972      -30.0193670016       -0.1320197798  MEMB      153             0.0000000000
     19000       153  PMPE      H16S          -17.1046735736      -30.5360080078        0.1010608019  MEMB      153             0.0000000000
     19001       153  PMPE      H16T          -16.1963881354      -31.4970392964        0.3795001361  MEMB      153             0.0000000000
     19002       153  PMPE      C33           -13.8867876529      -27.6966810729      -12.5136049094  MEMB      153             0.0000000000
     19003       153  PMPE      H3X           -12.9139377132      -27.5273047581      -13.0502783638  MEMB      153             0.0000000000
     19004       153  PMPE      H3Y           -13.9518707651      -28.5538306775      -11.7924723799  MEMB      153             0.0000000000
     19005       153  PMPE      C34           -13.8749286520      -26.3973952716      -11.7549613940  MEMB      153             0.0000000000
     19006       153  PMPE      H4X           -13.6378110463      -25.5981472157      -12.4881180325  MEMB      153             0.0000000000
     19007       153  PMPE      H4Y           -13.0803936458      -26.3630804667      -10.9754417520  MEMB      153             0.0000000000
     19008       153  PMPE      C35           -15.1730780199      -26.1344839933      -11.0731724397  MEMB      153             0.0000000000
     19009       153  PMPE      H5X           -15.9983160255      -26.2496595631      -11.8111339072  MEMB      153             0.0000000000
     19010       153  PMPE      H5Y           -15.0615370627      -25.0732868170      -10.7618843616  MEMB      153             0.0000000000
     19011       153  PMPE      C36           -15.4465725325      -26.9089377207       -9.7948653554  MEMB      153             0.0000000000
     19012       153  PMPE      H6X           -14.5738301137      -26.9233000812       -9.1060310110  MEMB      153             0.0000000000
     19013       153  PMPE      H6Y           -15.7128577568      -27.9685701037      -10.0023562464  MEMB      153             0.0000000000
     19014       153  PMPE      C37           -16.5663868443      -26.1368526996       -9.1148774553  MEMB      153             0.0000000000
     19015       153  PMPE      H7X           -17.4317023118      -26.1462077280       -9.8130589105  MEMB      153             0.0000000000
     19016       153  PMPE      H7Y           -16.2818521182      -25.0637588341       -8.9895785767  MEMB      153             0.0000000000
     19017       153  PMPE      C38           -16.9151741873      -26.7280226793       -7.7597068829  MEMB      153             0.0000000000
     19018       153  PMPE      H8X           -16.2174399922      -26.2986788571       -7.0023730102  MEMB      153             0.0000000000
     19019       153  PMPE      H8Y           -16.7853716680      -27.8193699515       -7.7906027024  MEMB      153             0.0000000000
     19020       153  PMPE      C39           -18.3520573732      -26.4214570504       -7.3702792249  MEMB      153             0.0000000000
     19021       153  PMPE      H9X           -18.3532393071      -25.3548668228       -7.6042086968  MEMB      153             0.0000000000
     19022       153  PMPE      H9Y           -18.5366414623      -26.6253339453       -6.2919796151  MEMB      153             0.0000000000
     19023       153  PMPE      C310          -19.4600253737      -27.0035645084       -8.2526699763  MEMB      153             0.0000000000
     19024       153  PMPE      H10X          -19.3561936398      -26.5156754151       -9.2437120945  MEMB      153             0.0000000000
     19025       153  PMPE      H10Y          -20.4657666117      -26.7058576368       -7.8708075980  MEMB      153             0.0000000000
     19026       153  PMPE      C311          -19.3904661962      -28.5216535601       -8.4174501328  MEMB      153             0.0000000000
     19027       153  PMPE      H11X          -18.5780152497      -28.7892203510       -9.1176280682  MEMB      153             0.0000000000
     19028       153  PMPE      H11Y          -20.3558485045      -28.8556063622       -8.8542950075  MEMB      153             0.0000000000
     19029       153  PMPE      C312          -19.2279244433      -29.2659513081       -7.1079857452  MEMB      153             0.0000000000
     19030       153  PMPE      H12X          -18.4346193645      -28.8180786496       -6.4705462841  MEMB      153             0.0000000000
     19031       153  PMPE      H12Y          -18.9231632683      -30.3276602154       -7.2616777470  MEMB      153             0.0000000000
     19032       153  PMPE      C313          -20.5645190507      -29.2114458159       -6.4119564463  MEMB      153             0.0000000000
     19033       153  PMPE      H13X          -21.3555282919      -29.7380473879       -6.9575435377  MEMB      153             0.0000000000
     19034       153  PMPE      H13Y          -20.9304195628      -28.1819972591       -6.2239591143  MEMB      153             0.0000000000
     19035       153  PMPE      C314          -20.4454907275      -29.8782826895       -5.1266429169  MEMB      153             0.0000000000
     19036       153  PMPE      H14X          -19.8912896776      -30.8099724076       -5.1629349981  MEMB      153             0.0000000000
     19037       153  PMPE      H14Y          -21.4751444933      -30.0758499810       -4.8143107548  MEMB      153             0.0000000000
     19038       153  PMPE      C315          -19.5722173979      -29.1437572982       -4.2089113520  MEMB      153             0.0000000000
     19039       153  PMPE      H15X          -19.9586182148      -28.1307126271       -3.9243542152  MEMB      153             0.0000000000
     19040       153  PMPE      H15Y          -18.4840442141      -29.1586893850       -4.4066735100  MEMB      153             0.0000000000
     19041       153  PMPE      C316          -19.6185063865      -30.0125393746       -3.0886188690  MEMB      153             0.0000000000
     19042       153  PMPE      H16X          -20.6755422518      -29.8567180405       -2.7784938673  MEMB      153             0.0000000000
     19043       153  PMPE      H16Y          -18.9037335755      -29.5180541702       -2.4134245628  MEMB      153             0.0000000000
     19044       153  PMPE      H16Z          -19.4299123698      -31.1001541101       -3.0400572965  MEMB      153             0.0000000000
     19045       154  PMPE      N              -5.6852755498      -30.3801841671      -20.2594534115  MEMB      154             0.0000000000
     19046       154  PMPE      HN1            -5.7297957575      -30.3097898454      -19.2190704552  MEMB      154             0.0000000000
     19047       154  PMPE      HN2            -5.4976726089      -29.4356818511      -20.6407216857  MEMB      154             0.0000000000
     19048       154  PMPE      HN3            -6.6055756133      -30.7198105144      -20.6013463367  MEMB      154             0.0000000000
     19049       154  PMPE      C12            -4.5661508816      -31.2855149938      -20.7267120246  MEMB      154             0.0000000000
     19050       154  PMPE      H12A           -4.5815038915      -31.2852625491      -21.8328169977  MEMB      154             0.0000000000
     19051       154  PMPE      H12B           -4.7529368218      -32.3113390347      -20.3464296316  MEMB      154             0.0000000000
     19052       154  PMPE      C11            -3.1896307382      -30.7894107849      -20.2660490991  MEMB      154             0.0000000000
     19053       154  PMPE      H11A           -3.0587816237      -29.7133106579      -20.5089994179  MEMB      154             0.0000000000
     19054       154  PMPE      H11B           -2.3726362998      -31.3452211457      -20.7926757431  MEMB      154             0.0000000000
     19055       154  PMPE      P              -2.4938739470      -32.2408780434      -18.1862064869  MEMB      154             0.0000000000
     19056       154  PMPE      O13            -1.0271120253      -32.3060082039      -18.3781906964  MEMB      154             0.0000000000
     19057       154  PMPE      O14            -3.3215729474      -33.3734385646      -18.6414171721  MEMB      154             0.0000000000
     19058       154  PMPE      O11            -2.8487932797      -31.9479878078      -16.6906617856  MEMB      154             0.0000000000
     19059       154  PMPE      O12            -3.0844223728      -30.9264754871      -18.8703500864  MEMB      154             0.0000000000
     19060       154  PMPE      C1             -2.8846935975      -30.6161780579      -16.1809715301  MEMB      154             0.0000000000
     19061       154  PMPE      HA             -3.4409247220      -30.6564692588      -15.2200159518  MEMB      154             0.0000000000
     19062       154  PMPE      HB             -3.3592380590      -29.8853559815      -16.8657875441  MEMB      154             0.0000000000
     19063       154  PMPE      C2             -1.5104231623      -30.0492640557      -15.8308256326  MEMB      154             0.0000000000
     19064       154  PMPE      HS             -0.9868224144      -29.8094676940      -16.7978213054  MEMB      154             0.0000000000
     19065       154  PMPE      O21            -0.9053844665      -31.0466312329      -15.0315042079  MEMB      154             0.0000000000
     19066       154  PMPE      C21             0.2152600211      -31.4459741261      -15.4305494483  MEMB      154             0.0000000000
     19067       154  PMPE      O22             0.8032445480      -31.1132914104      -16.4504839330  MEMB      154             0.0000000000
     19068       154  PMPE      C22             0.7761949015      -32.2921268311      -14.3122594382  MEMB      154             0.0000000000
     19069       154  PMPE      H2R             1.6110220996      -31.8063972407      -13.7742666561  MEMB      154             0.0000000000
     19070       154  PMPE      H2S             1.1722971962      -33.1158281296      -14.9135911875  MEMB      154             0.0000000000
     19071       154  PMPE      C3             -1.6630881532      -28.7684734148      -14.9890232676  MEMB      154             0.0000000000
     19072       154  PMPE      HX             -2.3711394897      -28.1250956612      -15.5492472006  MEMB      154             0.0000000000
     19073       154  PMPE      HY             -0.7283834001      -28.1776114425      -14.8975218928  MEMB      154             0.0000000000
     19074       154  PMPE      O31            -2.1695824422      -29.1651259263      -13.6901905437  MEMB      154             0.0000000000
     19075       154  PMPE      C31            -2.4168100988      -28.1806884601      -12.8593941669  MEMB      154             0.0000000000
     19076       154  PMPE      O32            -2.3009250033      -26.9973643066      -13.1312833675  MEMB      154             0.0000000000
     19077       154  PMPE      C32            -2.8418210418      -28.7599684871      -11.4972824549  MEMB      154             0.0000000000
     19078       154  PMPE      H2X            -1.9340591492      -29.0005570813      -10.9135460210  MEMB      154             0.0000000000
     19079       154  PMPE      H2Y            -3.3950802511      -29.7002331639      -11.6927857365  MEMB      154             0.0000000000
     19080       154  PMPE      C23            -0.1310841904      -32.5061341224      -13.1369140853  MEMB      154             0.0000000000
     19081       154  PMPE      H3R            -0.9823152180      -33.0087273466      -13.5972704225  MEMB      154             0.0000000000
     19082       154  PMPE      H3S            -0.2695546708      -31.4802366354      -12.6895686554  MEMB      154             0.0000000000
     19083       154  PMPE      C24             0.3616939214      -33.4653405538      -12.0892173653  MEMB      154             0.0000000000
     19084       154  PMPE      H4R             1.3650154147      -33.2209280278      -12.1119556991  MEMB      154             0.0000000000
     19085       154  PMPE      H4S             0.6041273090      -34.4734650952      -12.4145122200  MEMB      154             0.0000000000
     19086       154  PMPE      C25            -0.1180685400      -33.1726021680      -10.6630602269  MEMB      154             0.0000000000
     19087       154  PMPE      H5R            -1.2067486343      -33.0937157266      -10.7466441804  MEMB      154             0.0000000000
     19088       154  PMPE      H5S             0.0899084014      -32.1585738909      -10.2581362948  MEMB      154             0.0000000000
     19089       154  PMPE      C26             0.4199200199      -34.1849372166       -9.6528151871  MEMB      154             0.0000000000
     19090       154  PMPE      H6R             1.5137947047      -34.2149875644       -9.4968810378  MEMB      154             0.0000000000
     19091       154  PMPE      H6S             0.2526620278      -35.1838648103      -10.0958388795  MEMB      154             0.0000000000
     19092       154  PMPE      C27            -0.3518742088      -34.0660237957       -8.3427216479  MEMB      154             0.0000000000
     19093       154  PMPE      H7R            -0.3931062565      -35.0988234138       -7.9343368092  MEMB      154             0.0000000000
     19094       154  PMPE      H7S            -1.3745849253      -33.6868699793       -8.5428659941  MEMB      154             0.0000000000
     19095       154  PMPE      C28             0.1974295857      -33.1681311773       -7.2467241827  MEMB      154             0.0000000000
     19096       154  PMPE      H8R             1.2384612651      -33.5228754234       -7.0180970457  MEMB      154             0.0000000000
     19097       154  PMPE      H8S            -0.3697231434      -33.3667982469       -6.3229285472  MEMB      154             0.0000000000
     19098       154  PMPE      C29            -0.0664242563      -31.6448201341       -7.4671178183  MEMB      154             0.0000000000
     19099       154  PMPE      H9R            -0.5995198315      -31.2599864138       -8.3437041142  MEMB      154             0.0000000000
     19100       154  PMPE      C217            1.1676732589      -30.9380341073       -7.5265487570  MEMB      154             0.0000000000
     19101       154  PMPE      H17R            1.4628631138      -30.0854044407       -8.1786925953  MEMB      154             0.0000000000
     19102       154  PMPE      H17S            1.7884716787      -31.7570205983       -7.3892135519  MEMB      154             0.0000000000
     19103       154  PMPE      C210            0.5356060555      -30.7915180412       -6.3635173825  MEMB      154             0.0000000000
     19104       154  PMPE      H10R            0.8597017657      -29.7142085882       -6.5262141328  MEMB      154             0.0000000000
     19105       154  PMPE      C211            1.4169826050      -31.5367136454       -5.3461153093  MEMB      154             0.0000000000
     19106       154  PMPE      H11R            2.2220631657      -30.7814586646       -5.2448723029  MEMB      154             0.0000000000
     19107       154  PMPE      H11S            2.0632908296      -32.3885658869       -5.5290991124  MEMB      154             0.0000000000
     19108       154  PMPE      C212            0.5095957163      -31.9666215075       -4.1955776264  MEMB      154             0.0000000000
     19109       154  PMPE      H12R           -0.0281893940      -32.8780463755       -4.4784754555  MEMB      154             0.0000000000
     19110       154  PMPE      H12S           -0.3311391950      -31.2468362669       -4.2542306132  MEMB      154             0.0000000000
     19111       154  PMPE      C213            1.3076599707      -32.0976331477       -2.8605114569  MEMB      154             0.0000000000
     19112       154  PMPE      H13R            1.6731834380      -31.3063322169       -2.1750629245  MEMB      154             0.0000000000
     19113       154  PMPE      H13S            2.3646022299      -32.1918104977       -3.1383372628  MEMB      154             0.0000000000
     19114       154  PMPE      C214            0.6451944968      -32.7075367201       -1.6905276772  MEMB      154             0.0000000000
     19115       154  PMPE      H14R            1.4080182275      -32.6735703980       -0.8630657447  MEMB      154             0.0000000000
     19116       154  PMPE      H14S            0.4905213138      -33.6984130892       -2.1323168884  MEMB      154             0.0000000000
     19117       154  PMPE      C215           -0.6299119524      -32.0985148776       -1.1109736233  MEMB      154             0.0000000000
     19118       154  PMPE      H15R           -1.4435575846      -31.9677431522       -1.8583364840  MEMB      154             0.0000000000
     19119       154  PMPE      H15S           -0.4403875402      -31.1051597008       -0.6355418397  MEMB      154             0.0000000000
     19120       154  PMPE      C216           -1.0434801322      -33.0965368815       -0.0405303844  MEMB      154             0.0000000000
     19121       154  PMPE      H16R           -1.2308934498      -34.0825332079       -0.5249829303  MEMB      154             0.0000000000
     19122       154  PMPE      H16S           -0.2002847126      -33.2179604213        0.6795773827  MEMB      154             0.0000000000
     19123       154  PMPE      H16T           -1.9520609567      -32.7607725919        0.4907867256  MEMB      154             0.0000000000
     19124       154  PMPE      C33            -3.8075042737      -27.7995799638      -10.7639924546  MEMB      154             0.0000000000
     19125       154  PMPE      H3X            -4.6996299073      -27.7161982718      -11.4196251539  MEMB      154             0.0000000000
     19126       154  PMPE      H3Y            -3.3717841970      -26.7706699825      -10.6860034899  MEMB      154             0.0000000000
     19127       154  PMPE      C34            -4.4772355625      -28.3032975017       -9.4580668342  MEMB      154             0.0000000000
     19128       154  PMPE      H4X            -5.1178520295      -29.1711604516       -9.5790672925  MEMB      154             0.0000000000
     19129       154  PMPE      H4Y            -4.9928396019      -27.4118086893       -8.9751242762  MEMB      154             0.0000000000
     19130       154  PMPE      C35            -3.6408879414      -28.9540734824       -8.4000702231  MEMB      154             0.0000000000
     19131       154  PMPE      H5X            -3.2915682052      -27.9525599267       -8.4922000099  MEMB      154             0.0000000000
     19132       154  PMPE      H5Y            -2.6959127273      -29.5244784675       -8.5704444138  MEMB      154             0.0000000000
     19133       154  PMPE      C36            -4.2673919183      -29.0573439512       -6.9786274877  MEMB      154             0.0000000000
     19134       154  PMPE      H6X            -4.5738170227      -30.1091361812       -6.9855901447  MEMB      154             0.0000000000
     19135       154  PMPE      H6Y            -4.8180537894      -28.1385178443       -6.6700688955  MEMB      154             0.0000000000
     19136       154  PMPE      C37            -3.4201506179      -29.2079563911       -5.7601868311  MEMB      154             0.0000000000
     19137       154  PMPE      H7X            -3.2688252062      -28.1418295429       -5.5227058571  MEMB      154             0.0000000000
     19138       154  PMPE      H7Y            -2.5802812733      -29.7711557615       -6.2713900582  MEMB      154             0.0000000000
     19139       154  PMPE      C38            -3.6632872094      -29.3040252943       -4.2773650972  MEMB      154             0.0000000000
     19140       154  PMPE      H8X            -4.2529274581      -28.4811364958       -3.8680532082  MEMB      154             0.0000000000
     19141       154  PMPE      H8Y            -2.9177933859      -29.2052970232       -3.4821663751  MEMB      154             0.0000000000
     19142       154  PMPE      C39            -3.8500777228      -30.7207786062       -4.1806088365  MEMB      154             0.0000000000
     19143       154  PMPE      H9X            -2.9326680922      -31.2751884875       -4.5220416590  MEMB      154             0.0000000000
     19144       154  PMPE      H9Y            -4.6859173857      -30.8502470786       -4.8958714601  MEMB      154             0.0000000000
     19145       154  PMPE      C310           -4.1794010838      -30.9640947002       -2.7673678620  MEMB      154             0.0000000000
     19146       154  PMPE      H10X           -5.0447782796      -30.3037361909       -2.6098968386  MEMB      154             0.0000000000
     19147       154  PMPE      H10Y           -3.3344479300      -30.6450051833       -2.1062328337  MEMB      154             0.0000000000
     19148       154  PMPE      C311           -4.5187713629      -32.4141637816       -2.6927246274  MEMB      154             0.0000000000
     19149       154  PMPE      H11X           -3.5637776986      -32.9541828530       -2.8819655416  MEMB      154             0.0000000000
     19150       154  PMPE      H11Y           -5.2220841835      -32.6533640114       -3.5261314555  MEMB      154             0.0000000000
     19151       154  PMPE      C312           -5.1315922380      -32.8116584589       -1.3642678936  MEMB      154             0.0000000000
     19152       154  PMPE      H12X           -6.1972133998      -32.4818472600       -1.3505066132  MEMB      154             0.0000000000
     19153       154  PMPE      H12Y           -4.5795977520      -32.2994861585       -0.5490251421  MEMB      154             0.0000000000
     19154       154  PMPE      C313           -5.0338244627      -34.3248514815       -1.1635580948  MEMB      154             0.0000000000
     19155       154  PMPE      H13X           -4.0480587857      -34.5961742605       -0.7508822921  MEMB      154             0.0000000000
     19156       154  PMPE      H13Y           -5.0583919649      -34.7927589717       -2.1796254149  MEMB      154             0.0000000000
     19157       154  PMPE      C314           -6.1582397459      -34.9334211862       -0.3061877299  MEMB      154             0.0000000000
     19158       154  PMPE      H14X           -6.0896861897      -36.0350727502       -0.3351110910  MEMB      154             0.0000000000
     19159       154  PMPE      H14Y           -7.1557555801      -34.7034776877       -0.6448789215  MEMB      154             0.0000000000
     19160       154  PMPE      C315           -6.3936352638      -34.3405725351        1.0658044600  MEMB      154             0.0000000000
     19161       154  PMPE      H15X           -6.7284757738      -33.2760632217        0.9575343105  MEMB      154             0.0000000000
     19162       154  PMPE      H15Y           -5.3950120542      -34.3729453161        1.5283531460  MEMB      154             0.0000000000
     19163       154  PMPE      C316           -7.4285226864      -35.1548881115        1.8562147551  MEMB      154             0.0000000000
     19164       154  PMPE      H16X           -6.9367427885      -36.0470127000        2.3003900991  MEMB      154             0.0000000000
     19165       154  PMPE      H16Y           -8.2585938747      -35.5208146711        1.2079087927  MEMB      154             0.0000000000
     19166       154  PMPE      H16Z           -7.8788260059      -34.5651753505        2.6797591941  MEMB      154             0.0000000000
     19167       155  PYPG      C13           -30.5541324680      -13.7964372071      -20.6405959466  MEMB      155             0.0000000000
     19168       155  PYPG      H13A          -31.2542315669      -14.3043575847      -21.3286369563  MEMB      155             0.0000000000
     19169       155  PYPG      H13B          -31.0337677983      -12.8596943361      -20.2795140289  MEMB      155             0.0000000000
     19170       155  PYPG      OC3           -29.4017756944      -13.4601609560      -21.4259709684  MEMB      155             0.0000000000
     19171       155  PYPG      HO3           -29.2948848757      -14.1889130428      -22.0458326725  MEMB      155             0.0000000000
     19172       155  PYPG      C12           -30.2689669098      -14.7672777766      -19.4440016219  MEMB      155             0.0000000000
     19173       155  PYPG      H12A          -29.8673910734      -15.7158040366      -19.8706805776  MEMB      155             0.0000000000
     19174       155  PYPG      OC2           -31.4758412350      -15.1166756721      -18.7373719664  MEMB      155             0.0000000000
     19175       155  PYPG      HO2           -31.1244622272      -15.5703356350      -17.9662401250  MEMB      155             0.0000000000
     19176       155  PYPG      C11           -29.1961155851      -14.2299894153      -18.4502002035  MEMB      155             0.0000000000
     19177       155  PYPG      H11A          -29.2966923708      -14.7396009094      -17.4619596723  MEMB      155             0.0000000000
     19178       155  PYPG      H11B          -29.3991315935      -13.1512746820      -18.2623367651  MEMB      155             0.0000000000
     19179       155  PYPG      P             -26.6731530810      -15.0694323433      -18.2902412288  MEMB      155             0.0000000000
     19180       155  PYPG      O13           -25.7099965323      -14.0923701817      -17.7604517257  MEMB      155             0.0000000000
     19181       155  PYPG      O14           -26.0077101558      -15.9951616535      -19.2330345784  MEMB      155             0.0000000000
     19182       155  PYPG      O11           -27.3208632142      -15.9322236409      -17.1322657479  MEMB      155             0.0000000000
     19183       155  PYPG      O12           -27.8846113612      -14.3694404570      -19.0171002505  MEMB      155             0.0000000000
     19184       155  PYPG      C1            -26.6003758634      -16.1258506330      -15.9106985560  MEMB      155             0.0000000000
     19185       155  PYPG      HA            -26.3401538510      -15.1468312207      -15.4289187854  MEMB      155             0.0000000000
     19186       155  PYPG      HB            -25.6670804499      -16.6990674966      -16.0856747080  MEMB      155             0.0000000000
     19187       155  PYPG      C2            -27.4324313667      -16.9064280276      -14.8692357043  MEMB      155             0.0000000000
     19188       155  PYPG      HS            -27.6963254019      -17.9198299813      -15.2555864229  MEMB      155             0.0000000000
     19189       155  PYPG      O21           -28.5503303526      -16.0858356641      -14.5619935118  MEMB      155             0.0000000000
     19190       155  PYPG      C21           -29.6853405348      -16.6683135847      -14.4220715661  MEMB      155             0.0000000000
     19191       155  PYPG      O22           -29.9569918046      -17.8350438287      -14.5900657435  MEMB      155             0.0000000000
     19192       155  PYPG      C22           -30.7094537511      -15.6344713093      -14.0952157247  MEMB      155             0.0000000000
     19193       155  PYPG      H2R           -31.3488802564      -15.4975672120      -14.9910733378  MEMB      155             0.0000000000
     19194       155  PYPG      H2S           -30.2250990992      -14.6864108702      -13.8180444445  MEMB      155             0.0000000000
     19195       155  PYPG      C3            -26.5828224273      -17.1091960849      -13.5992301056  MEMB      155             0.0000000000
     19196       155  PYPG      HX            -25.9385375858      -16.2152792523      -13.4590710484  MEMB      155             0.0000000000
     19197       155  PYPG      HY            -25.9301430376      -17.9739610976      -13.8294604270  MEMB      155             0.0000000000
     19198       155  PYPG      O31           -27.3353049918      -17.4425041424      -12.4227783781  MEMB      155             0.0000000000
     19199       155  PYPG      C31           -27.6320715364      -16.4474316054      -11.6098063495  MEMB      155             0.0000000000
     19200       155  PYPG      O32           -27.5677047138      -15.2568920247      -11.8474589074  MEMB      155             0.0000000000
     19201       155  PYPG      C32           -28.0042358197      -17.0935693594      -10.2750475631  MEMB      155             0.0000000000
     19202       155  PYPG      H2X           -28.9951254866      -17.5532748008      -10.4076627160  MEMB      155             0.0000000000
     19203       155  PYPG      H2Y           -27.2307594041      -17.8582164857      -10.0303799223  MEMB      155             0.0000000000
     19204       155  PYPG      C23           -31.4697305693      -16.0583278781      -12.8556281178  MEMB      155             0.0000000000
     19205       155  PYPG      H3R           -30.8267043599      -16.0525238710      -11.9607975883  MEMB      155             0.0000000000
     19206       155  PYPG      H3S           -31.6540742458      -17.1494223354      -12.9816940042  MEMB      155             0.0000000000
     19207       155  PYPG      C24           -32.6873545791      -15.1257122252      -12.6606922984  MEMB      155             0.0000000000
     19208       155  PYPG      H4R           -33.3341952133      -15.4517230230      -11.8200862277  MEMB      155             0.0000000000
     19209       155  PYPG      H4S           -33.3126651003      -15.1220821599      -13.5908707407  MEMB      155             0.0000000000
     19210       155  PYPG      C25           -32.3863706296      -13.7192510280      -12.2390409217  MEMB      155             0.0000000000
     19211       155  PYPG      H5R           -33.3453457605      -13.1664925114      -12.1826484728  MEMB      155             0.0000000000
     19212       155  PYPG      H5S           -31.7650545064      -13.2757468560      -13.0434152346  MEMB      155             0.0000000000
     19213       155  PYPG      C26           -31.8668301177      -13.6236508246      -10.8085507828  MEMB      155             0.0000000000
     19214       155  PYPG      H6R           -31.0999700313      -14.3990684810      -10.6519318940  MEMB      155             0.0000000000
     19215       155  PYPG      H6S           -32.7365979888      -13.8202663358      -10.1373214332  MEMB      155             0.0000000000
     19216       155  PYPG      C27           -31.3056170666      -12.2257136185      -10.5863585732  MEMB      155             0.0000000000
     19217       155  PYPG      H7R           -32.0835990443      -11.5929361837      -10.9904456249  MEMB      155             0.0000000000
     19218       155  PYPG      H7S           -30.4160760332      -12.1080285811      -11.2357702780  MEMB      155             0.0000000000
     19219       155  PYPG      C28           -31.0276583614      -11.6837280838       -9.1756896803  MEMB      155             0.0000000000
     19220       155  PYPG      H8R           -30.5769104354      -10.6763954027       -9.3033790428  MEMB      155             0.0000000000
     19221       155  PYPG      H8S           -30.2288918076      -12.3044354851       -8.7182067167  MEMB      155             0.0000000000
     19222       155  PYPG      C29           -32.2253690129      -11.5400285522       -8.2754768387  MEMB      155             0.0000000000
     19223       155  PYPG      H9R           -32.8624000597      -10.6546159290       -8.3594470314  MEMB      155             0.0000000000
     19224       155  PYPG      C210          -32.6453558654      -12.5028308701       -7.4844763998  MEMB      155             0.0000000000
     19225       155  PYPG      H10R          -33.4321579005      -12.3078210337       -6.7251294269  MEMB      155             0.0000000000
     19226       155  PYPG      C211          -31.9611117887      -13.8294858909       -7.4216138631  MEMB      155             0.0000000000
     19227       155  PYPG      H11R          -30.9465470336      -13.9457467168       -7.8346823346  MEMB      155             0.0000000000
     19228       155  PYPG      H11S          -32.5699098457      -14.6295559144       -7.8874273694  MEMB      155             0.0000000000
     19229       155  PYPG      C212          -31.8063380372      -14.0895085190       -5.9991386602  MEMB      155             0.0000000000
     19230       155  PYPG      H12R          -32.7865461718      -13.8546135971       -5.5059994835  MEMB      155             0.0000000000
     19231       155  PYPG      H12S          -31.0990393532      -13.4894124647       -5.3885825694  MEMB      155             0.0000000000
     19232       155  PYPG      C213          -31.4210212101      -15.5070245372       -5.8350264188  MEMB      155             0.0000000000
     19233       155  PYPG      H13R          -30.4457928967      -15.8997876482       -6.0861642379  MEMB      155             0.0000000000
     19234       155  PYPG      H13S          -31.9825348581      -16.2996342378       -6.3984771004  MEMB      155             0.0000000000
     19235       155  PYPG      C214          -31.5353386361      -15.2534297008       -4.3859998003  MEMB      155             0.0000000000
     19236       155  PYPG      H14R          -32.4925436542      -15.2178252547       -3.7667495976  MEMB      155             0.0000000000
     19237       155  PYPG      H14S          -32.4124906818      -15.8087283256       -3.9670020455  MEMB      155             0.0000000000
     19238       155  PYPG      C215          -30.0413385179      -15.0689014167       -3.8075429710  MEMB      155             0.0000000000
     19239       155  PYPG      H15R          -30.3230302586      -14.9968381517       -2.7655406880  MEMB      155             0.0000000000
     19240       155  PYPG      H15S          -29.8053693582      -14.2055582550       -3.2002091518  MEMB      155             0.0000000000
     19241       155  PYPG      C216          -28.6056498972      -15.8822697447       -4.1781307148  MEMB      155             0.0000000000
     19242       155  PYPG      H16R          -28.2122227865      -16.8964943775       -3.7785435333  MEMB      155             0.0000000000
     19243       155  PYPG      H16S          -27.7088651041      -15.6392499044       -3.5506666157  MEMB      155             0.0000000000
     19244       155  PYPG      H16T          -28.6896342005      -16.2943930091       -5.1729493741  MEMB      155             0.0000000000
     19245       155  PYPG      C33           -28.3731506289      -16.1676495135       -9.1260244367  MEMB      155             0.0000000000
     19246       155  PYPG      H3X           -28.7422621204      -16.7401704055       -8.2436382060  MEMB      155             0.0000000000
     19247       155  PYPG      H3Y           -28.9908812471      -15.3061531861       -9.4498310090  MEMB      155             0.0000000000
     19248       155  PYPG      C34           -27.2458104779      -15.4961635399       -8.5458834966  MEMB      155             0.0000000000
     19249       155  PYPG      H4X           -26.5314882169      -15.4378866715       -9.3945260411  MEMB      155             0.0000000000
     19250       155  PYPG      H4Y           -26.7761030146      -16.2313147111       -7.8854619702  MEMB      155             0.0000000000
     19251       155  PYPG      C35           -27.6478497583      -14.0980516852       -7.9399674099  MEMB      155             0.0000000000
     19252       155  PYPG      H5X           -28.1702140962      -13.5160198124       -8.6913299502  MEMB      155             0.0000000000
     19253       155  PYPG      H5Y           -26.9192379120      -13.2835753610       -7.7947678138  MEMB      155             0.0000000000
     19254       155  PYPG      C36           -28.0705666023      -14.1742227354       -6.5093315475  MEMB      155             0.0000000000
     19255       155  PYPG      H6X           -27.2942114050      -14.6635610772       -5.8720293316  MEMB      155             0.0000000000
     19256       155  PYPG      H6Y           -28.9603049459      -14.8162347539       -6.5654955622  MEMB      155             0.0000000000
     19257       155  PYPG      C37           -28.4683890787      -12.8319446723       -5.9116890491  MEMB      155             0.0000000000
     19258       155  PYPG      H7X           -29.4378452444      -12.5983653464       -6.3998453607  MEMB      155             0.0000000000
     19259       155  PYPG      H7Y           -28.6414079932      -12.9884388539       -4.8250023207  MEMB      155             0.0000000000
     19260       155  PYPG      C38           -27.6033970570      -11.5985969139       -6.1892272859  MEMB      155             0.0000000000
     19261       155  PYPG      H8X           -27.4595338337      -11.4354226348       -7.2831189076  MEMB      155             0.0000000000
     19262       155  PYPG      H8Y           -26.5811485284      -11.6631983985       -5.7505106321  MEMB      155             0.0000000000
     19263       155  PYPG      C39           -28.3672291941      -10.3431660174       -5.7839500541  MEMB      155             0.0000000000
     19264       155  PYPG      H9X           -29.1045851099      -10.0273537735       -6.5449175070  MEMB      155             0.0000000000
     19265       155  PYPG      H9Y           -27.6690625755       -9.5546594884       -5.8459425726  MEMB      155             0.0000000000
     19266       155  PYPG      C310          -28.9370904986      -10.2611111733       -4.3746211059  MEMB      155             0.0000000000
     19267       155  PYPG      H10X          -29.8205698120      -10.9239856259       -4.3282328246  MEMB      155             0.0000000000
     19268       155  PYPG      H10Y          -29.3010288916       -9.2118214197       -4.2538341970  MEMB      155             0.0000000000
     19269       155  PYPG      C311          -27.9692692917      -10.6349046481       -3.2378241206  MEMB      155             0.0000000000
     19270       155  PYPG      H11X          -27.0621090803      -10.0021772364       -3.2717997861  MEMB      155             0.0000000000
     19271       155  PYPG      H11Y          -27.6192854420      -11.6840115609       -3.3251330945  MEMB      155             0.0000000000
     19272       155  PYPG      C312          -28.6751354934      -10.4584579487       -1.8944522057  MEMB      155             0.0000000000
     19273       155  PYPG      H12X          -28.9429633901       -9.3863258273       -1.7994926468  MEMB      155             0.0000000000
     19274       155  PYPG      H12Y          -29.6112629803      -11.0506791782       -1.8952021192  MEMB      155             0.0000000000
     19275       155  PYPG      C313          -27.8984015964      -10.9207109353       -0.6659868696  MEMB      155             0.0000000000
     19276       155  PYPG      H13X          -28.5255170346      -10.6854554488        0.2236909960  MEMB      155             0.0000000000
     19277       155  PYPG      H13Y          -27.8173365210      -12.0285904188       -0.7061960337  MEMB      155             0.0000000000
     19278       155  PYPG      C314          -26.5381355267      -10.2117550951       -0.5934642545  MEMB      155             0.0000000000
     19279       155  PYPG      H14X          -25.8856072354      -10.5490844961       -1.4319996087  MEMB      155             0.0000000000
     19280       155  PYPG      H14Y          -26.7063458802       -9.1257398553       -0.6456261480  MEMB      155             0.0000000000
     19281       155  PYPG      C315          -25.7145643148      -10.4728163419        0.6186169683  MEMB      155             0.0000000000
     19282       155  PYPG      H15X          -24.6897511985      -10.0457761538        0.5936242975  MEMB      155             0.0000000000
     19283       155  PYPG      H15Y          -26.2250722529      -10.1453662924        1.5671744544  MEMB      155             0.0000000000
     19284       155  PYPG      C316          -25.5530536440      -11.9260661071        0.6630577066  MEMB      155             0.0000000000
     19285       155  PYPG      H16X          -26.5312256806      -12.2430708890        1.0146638091  MEMB      155             0.0000000000
     19286       155  PYPG      H16Y          -24.7351479652      -11.9849617524        1.3630276688  MEMB      155             0.0000000000
     19287       155  PYPG      H16Z          -25.2002755792      -12.6230987407       -0.1068212711  MEMB      155             0.0000000000
     19288       156  PMPE      N             -22.9392040548       24.0194883141      -22.5765571892  MEMB      156             0.0000000000
     19289       156  PMPE      HN1           -23.6955869739       24.3488562164      -23.2141923426  MEMB      156             0.0000000000
     19290       156  PMPE      HN2           -22.0402119982       24.5230403823      -22.7562872442  MEMB      156             0.0000000000
     19291       156  PMPE      HN3           -22.7753469681       22.9928190265      -22.7048912610  MEMB      156             0.0000000000
     19292       156  PMPE      C12           -23.3670619402       24.2803342585      -21.1578614280  MEMB      156             0.0000000000
     19293       156  PMPE      H12A          -24.3704422898       23.8300450419      -21.0189332138  MEMB      156             0.0000000000
     19294       156  PMPE      H12B          -23.4687576193       25.3743759130      -21.0009291260  MEMB      156             0.0000000000
     19295       156  PMPE      C11           -22.3710397150       23.6934079618      -20.1538364013  MEMB      156             0.0000000000
     19296       156  PMPE      H11A          -21.3927597192       24.2280443564      -20.2343251047  MEMB      156             0.0000000000
     19297       156  PMPE      H11B          -22.1845423731       22.6153345848      -20.3657419087  MEMB      156             0.0000000000
     19298       156  PMPE      P             -22.4300477564       23.0040479446      -17.6192628161  MEMB      156             0.0000000000
     19299       156  PMPE      O13           -21.2955109202       23.6815136695      -16.9818722071  MEMB      156             0.0000000000
     19300       156  PMPE      O14           -22.2778834257       21.6147875239      -18.0736087089  MEMB      156             0.0000000000
     19301       156  PMPE      O11           -23.6987591737       23.1379337823      -16.6808361111  MEMB      156             0.0000000000
     19302       156  PMPE      O12           -22.9453787943       23.8528416088      -18.8644532286  MEMB      156             0.0000000000
     19303       156  PMPE      C1            -24.2696669542       24.4429983650      -16.5712524413  MEMB      156             0.0000000000
     19304       156  PMPE      HA            -24.6656519451       24.7714749785      -17.5569241245  MEMB      156             0.0000000000
     19305       156  PMPE      HB            -23.5112041521       25.1974605051      -16.2701565950  MEMB      156             0.0000000000
     19306       156  PMPE      C2            -25.3962583082       24.4452872388      -15.5144877752  MEMB      156             0.0000000000
     19307       156  PMPE      HS            -26.0356143680       25.3494335020      -15.6753625544  MEMB      156             0.0000000000
     19308       156  PMPE      O21           -24.8500671191       24.4036518359      -14.1874966213  MEMB      156             0.0000000000
     19309       156  PMPE      C21           -24.3305562926       25.5510645365      -13.8433189909  MEMB      156             0.0000000000
     19310       156  PMPE      O22           -24.3627803609       26.5735078802      -14.4965123464  MEMB      156             0.0000000000
     19311       156  PMPE      C22           -23.6183087036       25.3854595676      -12.5272658455  MEMB      156             0.0000000000
     19312       156  PMPE      H2R           -22.5895131025       25.0349487385      -12.7500241914  MEMB      156             0.0000000000
     19313       156  PMPE      H2S           -24.1148234658       24.6240748806      -11.8985358217  MEMB      156             0.0000000000
     19314       156  PMPE      C3            -26.2981094582       23.2213158499      -15.7314095221  MEMB      156             0.0000000000
     19315       156  PMPE      HX            -25.6410037625       22.3908490630      -16.0300979384  MEMB      156             0.0000000000
     19316       156  PMPE      HY            -26.9316843015       23.4630398465      -16.5857235493  MEMB      156             0.0000000000
     19317       156  PMPE      O31           -27.0592480446       22.7496807765      -14.6247866204  MEMB      156             0.0000000000
     19318       156  PMPE      C31           -27.6603926822       23.6019285674      -13.7969941309  MEMB      156             0.0000000000
     19319       156  PMPE      O32           -27.8858017129       24.7793381900      -14.0125797630  MEMB      156             0.0000000000
     19320       156  PMPE      C32           -28.1246027100       22.8309444980      -12.5707872644  MEMB      156             0.0000000000
     19321       156  PMPE      H2X           -27.6856688409       21.8122503719      -12.5126945362  MEMB      156             0.0000000000
     19322       156  PMPE      H2Y           -29.2220837070       22.7920482839      -12.6493083723  MEMB      156             0.0000000000
     19323       156  PMPE      C23           -23.5154970310       26.7354327272      -11.8366815668  MEMB      156             0.0000000000
     19324       156  PMPE      H3R           -24.5248331483       27.1434887004      -11.5930579005  MEMB      156             0.0000000000
     19325       156  PMPE      H3S           -23.0224737285       27.4376853976      -12.5551170815  MEMB      156             0.0000000000
     19326       156  PMPE      C24           -22.6637514545       26.5729316952      -10.5848975779  MEMB      156             0.0000000000
     19327       156  PMPE      H4R           -21.6813009541       26.1555125692      -10.8734831469  MEMB      156             0.0000000000
     19328       156  PMPE      H4S           -23.2009170031       25.9996340339       -9.8092356505  MEMB      156             0.0000000000
     19329       156  PMPE      C25           -22.3872524063       27.8253522783       -9.8841524785  MEMB      156             0.0000000000
     19330       156  PMPE      H5R           -22.1396784005       28.5079187231      -10.6973050375  MEMB      156             0.0000000000
     19331       156  PMPE      H5S           -21.6783172562       27.8849427812       -9.0233264011  MEMB      156             0.0000000000
     19332       156  PMPE      C26           -23.5704191393       28.5723185474       -9.6255445509  MEMB      156             0.0000000000
     19333       156  PMPE      H6R           -23.8543232544       29.0017533373      -10.5256058411  MEMB      156             0.0000000000
     19334       156  PMPE      H6S           -23.0476513853       29.3149915300       -9.0676329489  MEMB      156             0.0000000000
     19335       156  PMPE      C27           -24.6342612263       27.9809681707       -8.8623502075  MEMB      156             0.0000000000
     19336       156  PMPE      H7R           -24.9280000043       27.0219574363       -9.3093187552  MEMB      156             0.0000000000
     19337       156  PMPE      H7S           -25.5156127991       28.6853056356       -8.7991674378  MEMB      156             0.0000000000
     19338       156  PMPE      C28           -24.0124256549       27.7642982538       -7.5242598985  MEMB      156             0.0000000000
     19339       156  PMPE      H8R           -23.3564340540       28.6086929599       -7.4521766818  MEMB      156             0.0000000000
     19340       156  PMPE      H8S           -23.3176008248       26.9235253148       -7.4216839104  MEMB      156             0.0000000000
     19341       156  PMPE      C29           -25.0509423545       27.8134389583       -6.4909072841  MEMB      156             0.0000000000
     19342       156  PMPE      H9R           -25.8314658142       27.1983699392       -6.4120969630  MEMB      156             0.0000000000
     19343       156  PMPE      C217          -25.7201186106       28.9844579581       -6.0702077232  MEMB      156             0.0000000000
     19344       156  PMPE      H17R          -26.6486361017       29.0679990674       -5.4987578685  MEMB      156             0.0000000000
     19345       156  PMPE      H17S          -25.3681899148       29.8462843070       -6.5190388865  MEMB      156             0.0000000000
     19346       156  PMPE      C210          -24.7874610515       28.0274277037       -5.0980934575  MEMB      156             0.0000000000
     19347       156  PMPE      H10R          -25.6731128628       27.7789218709       -4.5013220024  MEMB      156             0.0000000000
     19348       156  PMPE      C211          -23.2424947254       27.4813089553       -4.6251358769  MEMB      156             0.0000000000
     19349       156  PMPE      H11R          -22.4440549024       28.1833050546       -4.5788703164  MEMB      156             0.0000000000
     19350       156  PMPE      H11S          -22.8230915250       26.6983728575       -5.2435188961  MEMB      156             0.0000000000
     19351       156  PMPE      C212          -22.6269364281       27.6030877690       -3.1590502256  MEMB      156             0.0000000000
     19352       156  PMPE      H12R          -22.7366105312       26.5327405849       -3.0249912109  MEMB      156             0.0000000000
     19353       156  PMPE      H12S          -23.1403207128       28.3146163505       -2.4881900153  MEMB      156             0.0000000000
     19354       156  PMPE      C213          -21.3905015715       27.2198534842       -2.4456373731  MEMB      156             0.0000000000
     19355       156  PMPE      H13R          -20.9030667138       28.1942896330       -2.2862318518  MEMB      156             0.0000000000
     19356       156  PMPE      H13S          -20.8703574164       26.5267826824       -3.1497301336  MEMB      156             0.0000000000
     19357       156  PMPE      C214          -21.7306300545       26.5725470100       -1.0692567062  MEMB      156             0.0000000000
     19358       156  PMPE      H14R          -22.3085541266       25.6142626139       -1.1364763644  MEMB      156             0.0000000000
     19359       156  PMPE      H14S          -22.2209828709       27.1770879912       -0.2768452662  MEMB      156             0.0000000000
     19360       156  PMPE      C215          -20.4705686653       26.3402421753       -0.3873097072  MEMB      156             0.0000000000
     19361       156  PMPE      H15R          -20.8112097662       25.9497077451        0.5920243517  MEMB      156             0.0000000000
     19362       156  PMPE      H15S          -19.9582291163       27.3210558672       -0.2079205700  MEMB      156             0.0000000000
     19363       156  PMPE      C216          -19.7184987021       25.3904325125       -1.2989826496  MEMB      156             0.0000000000
     19364       156  PMPE      H16R          -20.3117249925       24.6430895144       -1.7775180008  MEMB      156             0.0000000000
     19365       156  PMPE      H16S          -19.2573553950       25.9731859772       -2.1243144375  MEMB      156             0.0000000000
     19366       156  PMPE      H16T          -18.9611649305       24.8015620853       -0.7728598082  MEMB      156             0.0000000000
     19367       156  PMPE      C33           -28.1328520679       23.5801920243      -11.2689492208  MEMB      156             0.0000000000
     19368       156  PMPE      H3X           -28.8372797049       23.0552939764      -10.5714992707  MEMB      156             0.0000000000
     19369       156  PMPE      H3Y           -28.5187653665       24.6024040317      -11.4606597561  MEMB      156             0.0000000000
     19370       156  PMPE      C34           -26.7684666167       23.6762895762      -10.6911206665  MEMB      156             0.0000000000
     19371       156  PMPE      H4X           -26.9060039910       23.8602672727       -9.5995330871  MEMB      156             0.0000000000
     19372       156  PMPE      H4Y           -26.0662306144       24.3251741926      -11.2484451285  MEMB      156             0.0000000000
     19373       156  PMPE      C35           -26.0579071452       22.4699100132      -10.4077754834  MEMB      156             0.0000000000
     19374       156  PMPE      H5X           -25.8150874209       21.9657304578      -11.3656912356  MEMB      156             0.0000000000
     19375       156  PMPE      H5Y           -26.8613587078       21.9262409288       -9.8239582340  MEMB      156             0.0000000000
     19376       156  PMPE      C36           -24.7752473055       22.8136754088       -9.6386449240  MEMB      156             0.0000000000
     19377       156  PMPE      H6X           -23.9081076658       22.9637207782      -10.2778256892  MEMB      156             0.0000000000
     19378       156  PMPE      H6Y           -24.2603869611       22.0353567039       -9.1543043350  MEMB      156             0.0000000000
     19379       156  PMPE      C37           -24.8886045357       23.2096824671       -8.1963470409  MEMB      156             0.0000000000
     19380       156  PMPE      H7X           -25.8052211280       22.8875852386       -7.6299154084  MEMB      156             0.0000000000
     19381       156  PMPE      H7Y           -25.0309856588       24.2369336794       -8.5305956589  MEMB      156             0.0000000000
     19382       156  PMPE      C38           -23.6737623174       22.8855853421       -7.2953504269  MEMB      156             0.0000000000
     19383       156  PMPE      H8X           -22.7518789533       23.2168920728       -7.7954490306  MEMB      156             0.0000000000
     19384       156  PMPE      H8Y           -23.5737936885       21.8530714836       -6.8985955186  MEMB      156             0.0000000000
     19385       156  PMPE      C39           -23.8171153684       23.7321645250       -6.1131558659  MEMB      156             0.0000000000
     19386       156  PMPE      H9X           -24.7329300657       23.3804132830       -5.5602947452  MEMB      156             0.0000000000
     19387       156  PMPE      H9Y           -23.9426529547       24.7251640128       -6.5965629645  MEMB      156             0.0000000000
     19388       156  PMPE      C310          -22.6734572816       23.9792735761       -5.1634452252  MEMB      156             0.0000000000
     19389       156  PMPE      H10X          -22.8841988784       24.7688747999       -4.3974136565  MEMB      156             0.0000000000
     19390       156  PMPE      H10Y          -21.8049788171       24.3756478031       -5.6963935843  MEMB      156             0.0000000000
     19391       156  PMPE      C311          -22.4896254381       22.7823192672       -4.3217413756  MEMB      156             0.0000000000
     19392       156  PMPE      H11X          -21.9859653916       21.9742341122       -4.8731967747  MEMB      156             0.0000000000
     19393       156  PMPE      H11Y          -23.4976623144       22.4406441346       -3.9785830115  MEMB      156             0.0000000000
     19394       156  PMPE      C312          -21.6934190353       23.2090473400       -3.1507543747  MEMB      156             0.0000000000
     19395       156  PMPE      H12X          -22.1410561701       24.1130874556       -2.6497572039  MEMB      156             0.0000000000
     19396       156  PMPE      H12Y          -20.6218043932       23.3644047002       -3.3607320871  MEMB      156             0.0000000000
     19397       156  PMPE      C313          -21.8222553030       22.1893464177       -2.1456993566  MEMB      156             0.0000000000
     19398       156  PMPE      H13X          -21.4468406695       21.1560264148       -2.3604234260  MEMB      156             0.0000000000
     19399       156  PMPE      H13Y          -22.9140933732       22.2496269115       -1.9164326644  MEMB      156             0.0000000000
     19400       156  PMPE      C314          -21.2401299337       22.7355118044       -0.9435548692  MEMB      156             0.0000000000
     19401       156  PMPE      H14X          -21.5605568298       23.7721239826       -0.7082201668  MEMB      156             0.0000000000
     19402       156  PMPE      H14Y          -20.1226150912       22.6120183310       -0.9430255996  MEMB      156             0.0000000000
     19403       156  PMPE      C315          -21.9715538315       22.3150248570        0.2286706642  MEMB      156             0.0000000000
     19404       156  PMPE      H15X          -21.5437065469       21.3226669222       -0.1746581975  MEMB      156             0.0000000000
     19405       156  PMPE      H15Y          -22.6445348929       21.6001095907        0.5956336194  MEMB      156             0.0000000000
     19406       156  PMPE      C316          -21.3897967135       23.2096245508        1.3285151985  MEMB      156             0.0000000000
     19407       156  PMPE      H16X          -20.3460641135       23.3725331796        0.9985426303  MEMB      156             0.0000000000
     19408       156  PMPE      H16Y          -21.2616135223       22.6477775817        2.2865175802  MEMB      156             0.0000000000
     19409       156  PMPE      H16Z          -21.7597101865       23.4472398206        2.2895709602  MEMB      156             0.0000000000
     19410       157  PMPE      N              -0.8563928453       35.9011695991      -20.2755235437  MEMB      157             0.0000000000
     19411       157  PMPE      HN1            -0.6068772644       36.0939352038      -19.2825374761  MEMB      157             0.0000000000
     19412       157  PMPE      HN2            -0.7236596428       36.7495238612      -20.8598899536  MEMB      157             0.0000000000
     19413       157  PMPE      HN3            -1.8466599376       35.5982638398      -20.2679133775  MEMB      157             0.0000000000
     19414       157  PMPE      C12            -0.0826313983       34.7142150356      -20.7788211632  MEMB      157             0.0000000000
     19415       157  PMPE      H12A            0.8988510684       34.7525740696      -20.2655497668  MEMB      157             0.0000000000
     19416       157  PMPE      H12B            0.0831872344       34.8584021907      -21.8658557567  MEMB      157             0.0000000000
     19417       157  PMPE      C11            -0.8335057497       33.3943305351      -20.4751070582  MEMB      157             0.0000000000
     19418       157  PMPE      H11A           -0.4070474017       32.5363151627      -21.0399142342  MEMB      157             0.0000000000
     19419       157  PMPE      H11B           -1.9020059572       33.4545171174      -20.7988544706  MEMB      157             0.0000000000
     19420       157  PMPE      P              -1.9733096500       33.0160933948      -18.1711220762  MEMB      157             0.0000000000
     19421       157  PMPE      O13            -2.6758310764       31.7410715723      -18.3588175830  MEMB      157             0.0000000000
     19422       157  PMPE      O14            -2.6985380371       34.2660320808      -18.5027191402  MEMB      157             0.0000000000
     19423       157  PMPE      O11            -1.3421918584       33.1533653743      -16.7255613405  MEMB      157             0.0000000000
     19424       157  PMPE      O12            -0.7014189196       33.0744257514      -19.1006026111  MEMB      157             0.0000000000
     19425       157  PMPE      C1             -0.1286562378       33.8979422306      -16.5554213279  MEMB      157             0.0000000000
     19426       157  PMPE      HA              0.0402268479       34.6313110430      -17.3811872652  MEMB      157             0.0000000000
     19427       157  PMPE      HB              0.7236386039       33.1857107059      -16.5350911399  MEMB      157             0.0000000000
     19428       157  PMPE      C2             -0.0821971504       34.7331092463      -15.2473988465  MEMB      157             0.0000000000
     19429       157  PMPE      HS              0.8731425958       35.3070166863      -15.2600469014  MEMB      157             0.0000000000
     19430       157  PMPE      O21            -0.1179500242       33.8546219612      -14.1056636767  MEMB      157             0.0000000000
     19431       157  PMPE      C21             0.1562703020       34.5003680754      -12.9952794095  MEMB      157             0.0000000000
     19432       157  PMPE      O22             0.6707229389       35.6069290229      -12.9197355017  MEMB      157             0.0000000000
     19433       157  PMPE      C22            -0.2737951414       33.6690926315      -11.8286535342  MEMB      157             0.0000000000
     19434       157  PMPE      H2R            -0.5005748872       32.6381391854      -12.1380819263  MEMB      157             0.0000000000
     19435       157  PMPE      H2S            -1.0951511697       34.1706844982      -11.2911699657  MEMB      157             0.0000000000
     19436       157  PMPE      C3             -1.2428620017       35.7659408503      -15.1793534496  MEMB      157             0.0000000000
     19437       157  PMPE      HX             -1.3768945115       36.1948193163      -16.1994591192  MEMB      157             0.0000000000
     19438       157  PMPE      HY             -0.9404437229       36.5935514616      -14.4952996541  MEMB      157             0.0000000000
     19439       157  PMPE      O31            -2.4339557023       35.1273725261      -14.6887371364  MEMB      157             0.0000000000
     19440       157  PMPE      C31            -3.5299147835       35.8070028269      -14.9011962497  MEMB      157             0.0000000000
     19441       157  PMPE      O32            -3.6280388515       36.8307627695      -15.5601026239  MEMB      157             0.0000000000
     19442       157  PMPE      C32            -4.6583268052       35.1460182225      -14.1394750945  MEMB      157             0.0000000000
     19443       157  PMPE      H2X            -4.2956719998       34.3538269800      -13.4573259727  MEMB      157             0.0000000000
     19444       157  PMPE      H2Y            -5.3846531053       34.7167652666      -14.8562075634  MEMB      157             0.0000000000
     19445       157  PMPE      C23             0.7859955219       33.6883262822      -10.7977799146  MEMB      157             0.0000000000
     19446       157  PMPE      H3R             0.9888021246       34.7533905212      -10.5906650384  MEMB      157             0.0000000000
     19447       157  PMPE      H3S             1.6773889627       33.2039084046      -11.2193255294  MEMB      157             0.0000000000
     19448       157  PMPE      C24             0.3614936031       32.9298387331       -9.5650175182  MEMB      157             0.0000000000
     19449       157  PMPE      H4R             0.5989539368       31.9697526540       -9.9656604932  MEMB      157             0.0000000000
     19450       157  PMPE      H4S            -0.7185619660       33.0294967478       -9.3767241654  MEMB      157             0.0000000000
     19451       157  PMPE      C25             1.0417580351       33.0242393289       -8.2187888331  MEMB      157             0.0000000000
     19452       157  PMPE      H5R             0.8694530464       34.0710980376       -8.0035347098  MEMB      157             0.0000000000
     19453       157  PMPE      H5S             2.1329991745       32.5586095966       -7.9860222013  MEMB      157             0.0000000000
     19454       157  PMPE      C26             0.4895791926       32.3023435093       -7.2424415478  MEMB      157             0.0000000000
     19455       157  PMPE      H6R             0.9001831056       31.5188398625       -7.9216080485  MEMB      157             0.0000000000
     19456       157  PMPE      H6S            -0.5746953434       32.3109632824       -7.1558800766  MEMB      157             0.0000000000
     19457       157  PMPE      C27             1.1489815385       32.3772358006       -5.9888173202  MEMB      157             0.0000000000
     19458       157  PMPE      H7R             1.0594257046       33.4460067980       -5.6618309258  MEMB      157             0.0000000000
     19459       157  PMPE      H7S             2.2169823547       32.1953036011       -6.1675324029  MEMB      157             0.0000000000
     19460       157  PMPE      C28             0.5793031654       31.3191035772       -5.0198879251  MEMB      157             0.0000000000
     19461       157  PMPE      H8R            -0.4167609445       31.5356515572       -4.6513916630  MEMB      157             0.0000000000
     19462       157  PMPE      H8S             1.2520426822       31.4526281189       -4.2402744628  MEMB      157             0.0000000000
     19463       157  PMPE      C29             1.1241646676       29.9144916294       -4.8491926724  MEMB      157             0.0000000000
     19464       157  PMPE      H9R             2.0940978732       29.8454069903       -5.2541394802  MEMB      157             0.0000000000
     19465       157  PMPE      C217           -0.0576522074       28.9553458772       -4.9889858651  MEMB      157             0.0000000000
     19466       157  PMPE      H17R            0.0225351297       27.9374320047       -5.3143745961  MEMB      157             0.0000000000
     19467       157  PMPE      H17S           -0.9268539296       29.5926435844       -5.0621028893  MEMB      157             0.0000000000
     19468       157  PMPE      C210            0.8830282969       28.7556248965       -3.9443890652  MEMB      157             0.0000000000
     19469       157  PMPE      H10R            1.5846081869       27.9014040563       -4.0952609658  MEMB      157             0.0000000000
     19470       157  PMPE      C211           -0.0853542335       28.6136032604       -2.8494881311  MEMB      157             0.0000000000
     19471       157  PMPE      H11R           -0.6759873610       27.7497626308       -2.8556689376  MEMB      157             0.0000000000
     19472       157  PMPE      H11S           -0.7880182292       29.4894468723       -3.0553725301  MEMB      157             0.0000000000
     19473       157  PMPE      C212            0.7474920343       28.2758749068       -1.5474278857  MEMB      157             0.0000000000
     19474       157  PMPE      H12R            1.5738647635       28.7918430989       -2.1121986421  MEMB      157             0.0000000000
     19475       157  PMPE      H12S            1.8449047732       28.1006641200       -1.5329519423  MEMB      157             0.0000000000
     19476       157  PMPE      C213            0.1068238846       28.7525551653        0.0200858442  MEMB      157             0.0000000000
     19477       157  PMPE      H13R           -0.8620846207       28.3242219930       -0.0083286287  MEMB      157             0.0000000000
     19478       157  PMPE      H13S           -0.4803545349       29.6930480187        0.1240627012  MEMB      157             0.0000000000
     19479       157  PMPE      C214            0.7526597389       29.4065599258        1.4071778544  MEMB      157             0.0000000000
     19480       157  PMPE      H14R            0.4142631893       30.4494952693        1.7226919136  MEMB      157             0.0000000000
     19481       157  PMPE      H14S            1.6146544880       30.1038576688        1.5679217742  MEMB      157             0.0000000000
     19482       157  PMPE      C215            1.6763967752       28.4160447526        1.9219008418  MEMB      157             0.0000000000
     19483       157  PMPE      H15R            0.7712863789       28.0442137637        2.4253971383  MEMB      157             0.0000000000
     19484       157  PMPE      H15S            2.4588633943       28.8128409479        2.6141662898  MEMB      157             0.0000000000
     19485       157  PMPE      C216            2.2684259170       27.4152245804        0.9093290153  MEMB      157             0.0000000000
     19486       157  PMPE      H16R            2.2889381324       26.4600288009        1.4264682631  MEMB      157             0.0000000000
     19487       157  PMPE      H16S            1.6809689256       27.0962215797        0.0485744470  MEMB      157             0.0000000000
     19488       157  PMPE      H16T            3.2634153834       27.6876759676        0.4960577492  MEMB      157             0.0000000000
     19489       157  PMPE      C33            -5.3357325049       36.1611876274      -13.2485168569  MEMB      157             0.0000000000
     19490       157  PMPE      H3X            -6.1236197009       35.6223448044      -12.7477249328  MEMB      157             0.0000000000
     19491       157  PMPE      H3Y            -5.7857135104       36.9589585670      -13.8454151651  MEMB      157             0.0000000000
     19492       157  PMPE      C34            -4.4700987674       36.7889912222      -12.1906197831  MEMB      157             0.0000000000
     19493       157  PMPE      H4X            -5.0634141947       37.6757375929      -11.8530142318  MEMB      157             0.0000000000
     19494       157  PMPE      H4Y            -3.5565318775       37.1978495460      -12.6828285903  MEMB      157             0.0000000000
     19495       157  PMPE      C35            -4.1228613752       35.9088788131      -10.9545613253  MEMB      157             0.0000000000
     19496       157  PMPE      H5X            -3.8044849465       34.9402070135      -11.3685323525  MEMB      157             0.0000000000
     19497       157  PMPE      H5Y            -4.9905114807       35.8297584926      -10.2583078754  MEMB      157             0.0000000000
     19498       157  PMPE      C36            -2.9431068794       36.2839233286      -10.0546865266  MEMB      157             0.0000000000
     19499       157  PMPE      H6X            -3.1768204143       37.1947885744       -9.5638742740  MEMB      157             0.0000000000
     19500       157  PMPE      H6Y            -1.9971119481       36.4868272737      -10.5957553577  MEMB      157             0.0000000000
     19501       157  PMPE      C37            -2.9321634686       35.7691540590       -8.6255282435  MEMB      157             0.0000000000
     19502       157  PMPE      H7X            -3.1455053216       34.7113817734       -8.6927887613  MEMB      157             0.0000000000
     19503       157  PMPE      H7Y            -3.7166347003       36.3135150192       -8.0037615576  MEMB      157             0.0000000000
     19504       157  PMPE      C38            -1.5738103917       36.0670705987       -8.0352019805  MEMB      157             0.0000000000
     19505       157  PMPE      H8X            -1.6947415411       37.1222384526       -7.8690309153  MEMB      157             0.0000000000
     19506       157  PMPE      H8Y            -0.7443622206       35.9120961356       -8.7611542089  MEMB      157             0.0000000000
     19507       157  PMPE      C39            -1.2865741145       35.5996678950       -6.6257982791  MEMB      157             0.0000000000
     19508       157  PMPE      H9X            -0.4238198947       36.1931554023       -6.2351357036  MEMB      157             0.0000000000
     19509       157  PMPE      H9Y            -1.0247293696       34.5340840126       -6.7413872988  MEMB      157             0.0000000000
     19510       157  PMPE      C310           -2.4427691107       35.8597759049       -5.6538741410  MEMB      157             0.0000000000
     19511       157  PMPE      H10X           -3.3074275276       35.2179821874       -5.9359783090  MEMB      157             0.0000000000
     19512       157  PMPE      H10Y           -2.7456460462       36.9228998198       -5.7657757202  MEMB      157             0.0000000000
     19513       157  PMPE      C311           -2.0745660956       35.6449110667       -4.1866946494  MEMB      157             0.0000000000
     19514       157  PMPE      H11X           -2.9300679548       35.9259273057       -3.5319808302  MEMB      157             0.0000000000
     19515       157  PMPE      H11Y           -1.1981127014       36.2651199784       -3.8759340437  MEMB      157             0.0000000000
     19516       157  PMPE      C312           -1.8120433679       34.1831548953       -3.9281377911  MEMB      157             0.0000000000
     19517       157  PMPE      H12X           -0.8171099325       33.8964708227       -4.3596140442  MEMB      157             0.0000000000
     19518       157  PMPE      H12Y           -2.5529582698       33.5136269885       -4.3791933659  MEMB      157             0.0000000000
     19519       157  PMPE      C313           -1.8653240421       33.8877683425       -2.4625113429  MEMB      157             0.0000000000
     19520       157  PMPE      H13X           -1.3084814410       34.7031434642       -1.9305750914  MEMB      157             0.0000000000
     19521       157  PMPE      H13Y           -1.4044848539       32.8734897087       -2.4282853769  MEMB      157             0.0000000000
     19522       157  PMPE      C314           -3.0172972270       33.7567142565       -1.5774500300  MEMB      157             0.0000000000
     19523       157  PMPE      H14X           -3.3982980309       34.7879218645       -1.4611855723  MEMB      157             0.0000000000
     19524       157  PMPE      H14Y           -2.6373145589       33.2732036515       -0.6246780998  MEMB      157             0.0000000000
     19525       157  PMPE      C315           -3.9759792257       32.8619960222       -2.1278079579  MEMB      157             0.0000000000
     19526       157  PMPE      H15X           -4.2389560162       33.2252687531       -3.1468608452  MEMB      157             0.0000000000
     19527       157  PMPE      H15Y           -4.8766570398       32.7935707227       -1.4888661584  MEMB      157             0.0000000000
     19528       157  PMPE      C316           -3.3620894642       31.5248173447       -2.2444234213  MEMB      157             0.0000000000
     19529       157  PMPE      H16X           -4.1374808106       31.2317582808       -2.9635909642  MEMB      157             0.0000000000
     19530       157  PMPE      H16Y           -3.3540207437       30.9182826409       -1.3094243330  MEMB      157             0.0000000000
     19531       157  PMPE      H16Z           -2.4139328214       31.3623399486       -2.7979718665  MEMB      157             0.0000000000
     19532       158  PMPE      N              -9.1083405179       34.8584107548      -17.7274912917  MEMB      158             0.0000000000
     19533       158  PMPE      HN1            -8.8018282873       35.2789272745      -18.6118275410  MEMB      158             0.0000000000
     19534       158  PMPE      HN2            -8.7506203560       35.3415866811      -16.8775145765  MEMB      158             0.0000000000
     19535       158  PMPE      HN3            -8.8124947686       33.8545991459      -17.7633126970  MEMB      158             0.0000000000
     19536       158  PMPE      C12           -10.6041306027       34.9114489182      -17.7953680548  MEMB      158             0.0000000000
     19537       158  PMPE      H12A          -10.9150728097       35.9599220173      -18.0021272078  MEMB      158             0.0000000000
     19538       158  PMPE      H12B          -10.9642769775       34.6119925320      -16.7896113745  MEMB      158             0.0000000000
     19539       158  PMPE      C11           -11.0506175002       33.9156505082      -18.8772216268  MEMB      158             0.0000000000
     19540       158  PMPE      H11A          -10.6926010106       34.2718972170      -19.8708366599  MEMB      158             0.0000000000
     19541       158  PMPE      H11B          -12.1675223953       33.8659152808      -18.9355809960  MEMB      158             0.0000000000
     19542       158  PMPE      P             -10.3653939756       31.4247771309      -19.5829995163  MEMB      158             0.0000000000
     19543       158  PMPE      O13            -9.0485133589       31.5341992772      -20.2173877251  MEMB      158             0.0000000000
     19544       158  PMPE      O14           -11.5257989731       31.5070796734      -20.4663159118  MEMB      158             0.0000000000
     19545       158  PMPE      O11           -10.3936788879       30.1115709052      -18.7179174026  MEMB      158             0.0000000000
     19546       158  PMPE      O12           -10.4734495439       32.6498852196      -18.5611729939  MEMB      158             0.0000000000
     19547       158  PMPE      C1            -10.1015318228       30.0732717873      -17.3225350193  MEMB      158             0.0000000000
     19548       158  PMPE      HA             -9.4991126068       30.9448051971      -16.9781296936  MEMB      158             0.0000000000
     19549       158  PMPE      HB             -9.5725603782       29.1216786540      -17.0917232476  MEMB      158             0.0000000000
     19550       158  PMPE      C2            -11.3857479511       30.0809688370      -16.5016149161  MEMB      158             0.0000000000
     19551       158  PMPE      HS            -11.8563799972       29.0715733300      -16.6830270927  MEMB      158             0.0000000000
     19552       158  PMPE      O21           -12.1456873994       31.2289481490      -16.9673931374  MEMB      158             0.0000000000
     19553       158  PMPE      C21           -13.4176718998       30.9700422237      -16.8649116187  MEMB      158             0.0000000000
     19554       158  PMPE      O22           -13.8348945479       29.9099732960      -16.4941312875  MEMB      158             0.0000000000
     19555       158  PMPE      C22           -14.2781412428       32.1486538554      -17.1702436830  MEMB      158             0.0000000000
     19556       158  PMPE      H2R           -15.3642154000       31.8673708265      -17.1856151773  MEMB      158             0.0000000000
     19557       158  PMPE      H2S           -14.0042905006       32.5561259887      -18.1507763286  MEMB      158             0.0000000000
     19558       158  PMPE      C3            -11.1292641477       30.2143655284      -14.9810548077  MEMB      158             0.0000000000
     19559       158  PMPE      HX            -10.2845624886       29.5610587672      -14.6601120717  MEMB      158             0.0000000000
     19560       158  PMPE      HY            -12.0327250830       29.8755449190      -14.4727732723  MEMB      158             0.0000000000
     19561       158  PMPE      O31           -10.9741500374       31.5951269792      -14.6483065727  MEMB      158             0.0000000000
     19562       158  PMPE      C31           -10.1678073940       31.9026172270      -13.6775398387  MEMB      158             0.0000000000
     19563       158  PMPE      O32            -9.5496477682       31.1295605125      -12.9636101695  MEMB      158             0.0000000000
     19564       158  PMPE      C32           -10.0934182153       33.4091718668      -13.6459977339  MEMB      158             0.0000000000
     19565       158  PMPE      H2X           -10.9205947697       33.7516650794      -12.9974923039  MEMB      158             0.0000000000
     19566       158  PMPE      H2Y           -10.2928966348       33.8476889706      -14.6465266748  MEMB      158             0.0000000000
     19567       158  PMPE      C23           -13.9673216432       33.2672484529      -16.2102328064  MEMB      158             0.0000000000
     19568       158  PMPE      H3R           -14.8095815222       33.9459281907      -16.4340590819  MEMB      158             0.0000000000
     19569       158  PMPE      H3S           -12.9476360320       33.6788757706      -16.2318614179  MEMB      158             0.0000000000
     19570       158  PMPE      C24           -14.1153893257       32.9117852528      -14.8014548362  MEMB      158             0.0000000000
     19571       158  PMPE      H4R           -13.5923206816       32.0141139536      -14.4409605538  MEMB      158             0.0000000000
     19572       158  PMPE      H4S           -15.2034329165       32.7231979069      -14.9151022248  MEMB      158             0.0000000000
     19573       158  PMPE      C25           -13.7924947864       34.0572120513      -13.8947720049  MEMB      158             0.0000000000
     19574       158  PMPE      H5R           -14.6520949643       34.8105084143      -13.9883751270  MEMB      158             0.0000000000
     19575       158  PMPE      H5S           -12.8568902143       34.6188564090      -13.9895481641  MEMB      158             0.0000000000
     19576       158  PMPE      C26           -13.5941859390       33.7206597658      -12.4467650201  MEMB      158             0.0000000000
     19577       158  PMPE      H6R           -14.2584117219       33.0461963612      -11.9778090819  MEMB      158             0.0000000000
     19578       158  PMPE      H6S           -13.9141551472       34.7220925387      -12.2134741711  MEMB      158             0.0000000000
     19579       158  PMPE      C27           -12.8128229937       32.8144769759      -11.4680591978  MEMB      158             0.0000000000
     19580       158  PMPE      H7R           -12.1683510683       33.6319870653      -11.0740379211  MEMB      158             0.0000000000
     19581       158  PMPE      H7S           -12.4744355269       32.0463450681      -12.1754136166  MEMB      158             0.0000000000
     19582       158  PMPE      C28           -13.6100429786       32.0817034118      -10.2700515982  MEMB      158             0.0000000000
     19583       158  PMPE      H8R           -14.5082881551       31.4911551831      -10.5612920285  MEMB      158             0.0000000000
     19584       158  PMPE      H8S           -14.0703030334       32.6688844552       -9.4847220082  MEMB      158             0.0000000000
     19585       158  PMPE      C29           -12.7233752797       31.5685817458       -9.2336624769  MEMB      158             0.0000000000
     19586       158  PMPE      H9R           -11.7593661021       32.0357419017       -9.0176135527  MEMB      158             0.0000000000
     19587       158  PMPE      C217          -12.7413457033       30.1311834777       -9.3834751818  MEMB      158             0.0000000000
     19588       158  PMPE      H17R          -11.7417067842       29.9860823405       -9.1448649139  MEMB      158             0.0000000000
     19589       158  PMPE      H17S          -13.4010579023       29.7292172267      -10.1622817861  MEMB      158             0.0000000000
     19590       158  PMPE      C210          -13.1997187862       30.7256060896       -8.1024319570  MEMB      158             0.0000000000
     19591       158  PMPE      H10R          -12.5733849690       30.6011072112       -7.2126643237  MEMB      158             0.0000000000
     19592       158  PMPE      C211          -14.5339032972       30.4133972471       -7.9153820610  MEMB      158             0.0000000000
     19593       158  PMPE      H11R          -14.6355604709       29.4187479555       -7.4260184671  MEMB      158             0.0000000000
     19594       158  PMPE      H11S          -14.9051595321       30.0761115646       -8.9235198675  MEMB      158             0.0000000000
     19595       158  PMPE      C212          -15.3935773816       31.6072114623       -7.3461046030  MEMB      158             0.0000000000
     19596       158  PMPE      H12R          -16.3259207180       31.3741553206       -6.8028155500  MEMB      158             0.0000000000
     19597       158  PMPE      H12S          -15.7971520105       32.0951755274       -8.2211795333  MEMB      158             0.0000000000
     19598       158  PMPE      C213          -15.1313174959       32.4110897365       -6.1251277722  MEMB      158             0.0000000000
     19599       158  PMPE      H13R          -15.7732483803       33.3193827968       -6.2773792221  MEMB      158             0.0000000000
     19600       158  PMPE      H13S          -14.0480002364       32.5231325663       -6.1725191005  MEMB      158             0.0000000000
     19601       158  PMPE      C214          -15.6964555087       31.8870093238       -4.8128801003  MEMB      158             0.0000000000
     19602       158  PMPE      H14R          -15.3045244901       30.9382044513       -4.4367578702  MEMB      158             0.0000000000
     19603       158  PMPE      H14S          -16.8164902150       31.7832378499       -4.7740385284  MEMB      158             0.0000000000
     19604       158  PMPE      C215          -15.0097556840       32.5286231757       -3.7205370591  MEMB      158             0.0000000000
     19605       158  PMPE      H15R          -15.0042097824       33.6052817409       -3.8770146146  MEMB      158             0.0000000000
     19606       158  PMPE      H15S          -13.9928801700       32.0436475303       -3.5765974325  MEMB      158             0.0000000000
     19607       158  PMPE      C216          -15.8037129653       32.2712544914       -2.5548549680  MEMB      158             0.0000000000
     19608       158  PMPE      H16R          -15.4724420699       31.3239329346       -2.1817850097  MEMB      158             0.0000000000
     19609       158  PMPE      H16S          -15.4524062541       32.9340498949       -1.7718172606  MEMB      158             0.0000000000
     19610       158  PMPE      H16T          -16.9106843875       32.2153869741       -2.6381383129  MEMB      158             0.0000000000
     19611       158  PMPE      C33            -8.7262455779       33.8155583502      -13.0811165012  MEMB      158             0.0000000000
     19612       158  PMPE      H3X            -7.9636223822       33.7879015100      -13.8946458039  MEMB      158             0.0000000000
     19613       158  PMPE      H3Y            -8.3891524803       33.1870120266      -12.2385022551  MEMB      158             0.0000000000
     19614       158  PMPE      C34            -8.7928212871       35.1980430709      -12.5054906231  MEMB      158             0.0000000000
     19615       158  PMPE      H4X            -9.2144930002       35.6779712407      -13.3844877239  MEMB      158             0.0000000000
     19616       158  PMPE      H4Y            -7.8179730408       35.6116294937      -12.2885948457  MEMB      158             0.0000000000
     19617       158  PMPE      C35            -9.5172483975       35.4021491512      -11.1842663049  MEMB      158             0.0000000000
     19618       158  PMPE      H5X           -10.5873489728       35.2337008689      -11.3561394130  MEMB      158             0.0000000000
     19619       158  PMPE      H5Y            -9.4048108612       36.4054751500      -10.7628752908  MEMB      158             0.0000000000
     19620       158  PMPE      C36            -8.8723489933       34.6427622422      -10.0410578114  MEMB      158             0.0000000000
     19621       158  PMPE      H6X            -7.7763173791       34.8431875610      -10.0583780479  MEMB      158             0.0000000000
     19622       158  PMPE      H6Y            -9.0516785176       33.5728315016      -10.2441746385  MEMB      158             0.0000000000
     19623       158  PMPE      C37            -9.4377629397       34.9641395044       -8.6554675863  MEMB      158             0.0000000000
     19624       158  PMPE      H7X            -9.1005338389       34.1612505698       -7.9681236493  MEMB      158             0.0000000000
     19625       158  PMPE      H7Y           -10.5478279957       34.9175347726       -8.7028669263  MEMB      158             0.0000000000
     19626       158  PMPE      C38            -9.0052724845       36.2930999018       -8.0413314286  MEMB      158             0.0000000000
     19627       158  PMPE      H8X            -9.3551960686       37.1068418391       -8.7203934400  MEMB      158             0.0000000000
     19628       158  PMPE      H8Y            -7.9059468104       36.4417035208       -8.0013047276  MEMB      158             0.0000000000
     19629       158  PMPE      C39            -9.5776856563       36.4506060730       -6.6131045389  MEMB      158             0.0000000000
     19630       158  PMPE      H9X           -10.6752277401       36.3664115916       -6.5045627993  MEMB      158             0.0000000000
     19631       158  PMPE      H9Y            -9.3108114558       37.4655889277       -6.3265076243  MEMB      158             0.0000000000
     19632       158  PMPE      C310           -8.7650414894       35.9946067723       -5.4364264322  MEMB      158             0.0000000000
     19633       158  PMPE      H10X           -7.7429867312       36.4329853894       -5.5991933656  MEMB      158             0.0000000000
     19634       158  PMPE      H10Y           -8.7659030608       34.8997675129       -5.4688772756  MEMB      158             0.0000000000
     19635       158  PMPE      C311           -9.3365142117       36.4775977374       -4.0952672991  MEMB      158             0.0000000000
     19636       158  PMPE      H11X          -10.3837657790       36.1605620531       -3.9261314894  MEMB      158             0.0000000000
     19637       158  PMPE      H11Y           -9.3616394272       37.5941783562       -4.0790016678  MEMB      158             0.0000000000
     19638       158  PMPE      C312           -8.5489891532       35.8307106236       -2.9541622078  MEMB      158             0.0000000000
     19639       158  PMPE      H12X           -7.5561999044       36.2222208542       -2.7922304166  MEMB      158             0.0000000000
     19640       158  PMPE      H12Y           -8.0163510628       34.9178124404       -3.2037494634  MEMB      158             0.0000000000
     19641       158  PMPE      C313           -9.0913141588       36.0615914708       -1.5654348267  MEMB      158             0.0000000000
     19642       158  PMPE      H13X           -9.7724542269       36.9469545703       -1.4600093872  MEMB      158             0.0000000000
     19643       158  PMPE      H13Y           -8.1735001496       36.0935793797       -0.8958274698  MEMB      158             0.0000000000
     19644       158  PMPE      C314           -9.9609094620       35.1300734110       -0.9698331073  MEMB      158             0.0000000000
     19645       158  PMPE      H14X          -10.8971039892       35.1750665524       -1.5435033802  MEMB      158             0.0000000000
     19646       158  PMPE      H14Y          -10.1038027441       35.6814023716        0.0142377483  MEMB      158             0.0000000000
     19647       158  PMPE      C315           -9.1534540458       33.8468420787       -1.0719971340  MEMB      158             0.0000000000
     19648       158  PMPE      H15X           -8.1641073081       34.0595118990       -0.5628442057  MEMB      158             0.0000000000
     19649       158  PMPE      H15Y           -8.8085261478       33.5857174805       -2.0625744577  MEMB      158             0.0000000000
     19650       158  PMPE      C316          -10.0032687019       32.7049367324       -0.5405368980  MEMB      158             0.0000000000
     19651       158  PMPE      H16X          -11.0916886210       32.9220212944       -0.6579861014  MEMB      158             0.0000000000
     19652       158  PMPE      H16Y          -10.2395503140       32.9698022313        0.4296787383  MEMB      158             0.0000000000
     19653       158  PMPE      H16Z           -9.5424224284       31.9614942317        0.1405308014  MEMB      158             0.0000000000
     19654       159  PMPG      C13            32.6074171237        4.3386893980      -17.2246479878  MEMB      159             0.0000000000
     19655       159  PMPG      H13A           32.1097528170        4.0109941651      -16.2901522546  MEMB      159             0.0000000000
     19656       159  PMPG      H13B           33.4351555475        5.0321719784      -16.9507627854  MEMB      159             0.0000000000
     19657       159  PMPG      OC3            31.6818989419        5.0669699349      -18.0301181322  MEMB      159             0.0000000000
     19658       159  PMPG      HO3            30.9136828156        4.5219564170      -18.1977295904  MEMB      159             0.0000000000
     19659       159  PMPG      C12            33.1054219917        3.0589253958      -17.9455349790  MEMB      159             0.0000000000
     19660       159  PMPG      H12A           32.2126192675        2.4623302411      -18.2276890587  MEMB      159             0.0000000000
     19661       159  PMPG      OC2            33.8690001883        2.2415645930      -17.0574229948  MEMB      159             0.0000000000
     19662       159  PMPG      HO2            34.3201635236        1.6019658761      -17.6248292920  MEMB      159             0.0000000000
     19663       159  PMPG      C11            33.9002750417        3.3637150851      -19.2270058863  MEMB      159             0.0000000000
     19664       159  PMPG      H11A           33.2019682784        3.5383168074      -20.0807749023  MEMB      159             0.0000000000
     19665       159  PMPG      H11B           34.5319921607        2.4788490377      -19.4828244633  MEMB      159             0.0000000000
     19666       159  PMPG      P              35.6457380608        4.9954737108      -20.1832168997  MEMB      159             0.0000000000
     19667       159  PMPG      O13            35.6446084988        6.4614861168      -20.3014530287  MEMB      159             0.0000000000
     19668       159  PMPG      O14            35.2894636412        4.2151807708      -21.3834904457  MEMB      159             0.0000000000
     19669       159  PMPG      O11            37.0355095858        4.5391206190      -19.5817685353  MEMB      159             0.0000000000
     19670       159  PMPG      O12            34.6819633938        4.5388739284      -19.0094292925  MEMB      159             0.0000000000
     19671       159  PMPG      C1             37.3234391777        4.9089983455      -18.2223492615  MEMB      159             0.0000000000
     19672       159  PMPG      HA             36.4263123008        5.0169014233      -17.5573946803  MEMB      159             0.0000000000
     19673       159  PMPG      HB             37.9399650761        5.8225889161      -18.2053921967  MEMB      159             0.0000000000
     19674       159  PMPG      C2             38.1477711464        3.8345392806      -17.5726023965  MEMB      159             0.0000000000
     19675       159  PMPG      HS             39.0952683055        3.7883095282      -18.1734226441  MEMB      159             0.0000000000
     19676       159  PMPG      O21            37.3498474665        2.6617957023      -17.7165432970  MEMB      159             0.0000000000
     19677       159  PMPG      C21            38.1304850605        1.7749660790      -17.3048258755  MEMB      159             0.0000000000
     19678       159  PMPG      O22            39.3484146390        1.9076203145      -17.1256085767  MEMB      159             0.0000000000
     19679       159  PMPG      C22            37.2801713449        0.6137724641      -16.9551464487  MEMB      159             0.0000000000
     19680       159  PMPG      H2R            37.5936829057       -0.0573777979      -17.6685489605  MEMB      159             0.0000000000
     19681       159  PMPG      H2S            36.2621348626        0.4795098005      -17.3327128902  MEMB      159             0.0000000000
     19682       159  PMPG      C3             38.4045573843        4.0961321788      -16.0530986723  MEMB      159             0.0000000000
     19683       159  PMPG      HX             38.9333033356        5.0560539380      -15.9594663224  MEMB      159             0.0000000000
     19684       159  PMPG      HY             39.0710398961        3.3336811291      -15.5704234102  MEMB      159             0.0000000000
     19685       159  PMPG      O31            37.1163004174        4.1130891330      -15.4162884291  MEMB      159             0.0000000000
     19686       159  PMPG      C31            37.2041731595        4.3399142366      -14.1359387465  MEMB      159             0.0000000000
     19687       159  PMPG      O32            38.2121954514        4.3142725110      -13.4728361753  MEMB      159             0.0000000000
     19688       159  PMPG      C32            35.8736208665        4.5942415180      -13.5136595403  MEMB      159             0.0000000000
     19689       159  PMPG      H2X            35.4486697932        3.6027562815      -13.2758418363  MEMB      159             0.0000000000
     19690       159  PMPG      H2Y            35.2576063006        5.0944670777      -14.2787546715  MEMB      159             0.0000000000
     19691       159  PMPG      C23            37.7255323560        0.0697859211      -15.6396760749  MEMB      159             0.0000000000
     19692       159  PMPG      H3R            38.7559422244        0.2870060521      -15.3041817974  MEMB      159             0.0000000000
     19693       159  PMPG      H3S            37.8992624893       -0.9881870118      -15.6619785800  MEMB      159             0.0000000000
     19694       159  PMPG      C24            36.6991143455        0.6241768910      -14.7680492405  MEMB      159             0.0000000000
     19695       159  PMPG      H4R            35.6325104660        0.4452293278      -15.0345515822  MEMB      159             0.0000000000
     19696       159  PMPG      H4S            36.9568025826        1.7035671582      -14.7662096724  MEMB      159             0.0000000000
     19697       159  PMPG      C25            36.8869377915        0.2103827829      -13.4209462049  MEMB      159             0.0000000000
     19698       159  PMPG      H5R            37.8730629556       -0.2987426645      -13.3384100837  MEMB      159             0.0000000000
     19699       159  PMPG      H5S            36.0942857455       -0.4975959961      -13.1736468654  MEMB      159             0.0000000000
     19700       159  PMPG      C26            36.4157619388        1.3947781022      -12.6310392759  MEMB      159             0.0000000000
     19701       159  PMPG      H6R            35.2993458779        1.4080653371      -12.5383621605  MEMB      159             0.0000000000
     19702       159  PMPG      H6S            37.0337298846        2.2904691578      -12.7614767969  MEMB      159             0.0000000000
     19703       159  PMPG      C27            36.7841823859        1.1452997772      -11.3171002673  MEMB      159             0.0000000000
     19704       159  PMPG      H7R            37.8594440035        1.1815419141      -11.3932933773  MEMB      159             0.0000000000
     19705       159  PMPG      H7S            36.3137248701        0.1131474078      -11.4097875990  MEMB      159             0.0000000000
     19706       159  PMPG      C28            36.4784682296        1.9516928505      -10.0277360819  MEMB      159             0.0000000000
     19707       159  PMPG      H8R            35.5713147517        1.4838117553       -9.6504839598  MEMB      159             0.0000000000
     19708       159  PMPG      H8S            36.1260834642        2.9059735210      -10.4207451939  MEMB      159             0.0000000000
     19709       159  PMPG      C29            37.6691990909        2.0755249822       -8.9076767031  MEMB      159             0.0000000000
     19710       159  PMPG      H9R            38.4136114977        2.8323584742       -9.1895085748  MEMB      159             0.0000000000
     19711       159  PMPG      C217           37.2781997244        2.4362508937       -7.5256211745  MEMB      159             0.0000000000
     19712       159  PMPG      H17R           37.7730550052        2.9357107180       -6.7403325370  MEMB      159             0.0000000000
     19713       159  PMPG      H17S           36.1897927094        2.5056188900       -7.4641816198  MEMB      159             0.0000000000
     19714       159  PMPG      C210           38.2484480740        1.0564898891       -7.7461583071  MEMB      159             0.0000000000
     19715       159  PMPG      H10R           39.1873348372        1.3221782882       -7.2949467634  MEMB      159             0.0000000000
     19716       159  PMPG      C211           38.2028591884       -0.7173752735       -7.4379647398  MEMB      159             0.0000000000
     19717       159  PMPG      H11R           37.2504114261       -1.2667874349       -7.1861979406  MEMB      159             0.0000000000
     19718       159  PMPG      H11S           38.6684911052       -1.4160365646       -8.1521840997  MEMB      159             0.0000000000
     19719       159  PMPG      C212           38.5249286945       -1.6972314838       -6.3623221798  MEMB      159             0.0000000000
     19720       159  PMPG      H12R           39.5792489105       -1.5299505819       -6.4153763452  MEMB      159             0.0000000000
     19721       159  PMPG      H12S           38.2518659601       -2.6713578793       -6.8987174167  MEMB      159             0.0000000000
     19722       159  PMPG      C213           37.8885395793       -1.3417718195       -5.0605676163  MEMB      159             0.0000000000
     19723       159  PMPG      H13R           36.7712824594       -1.3490335407       -4.8480950598  MEMB      159             0.0000000000
     19724       159  PMPG      H13S           38.4305029969       -0.4318915534       -4.8261120339  MEMB      159             0.0000000000
     19725       159  PMPG      C214           38.2315813324       -2.0041769035       -3.9369274669  MEMB      159             0.0000000000
     19726       159  PMPG      H14R           39.2770350830       -2.1789717199       -3.9202340242  MEMB      159             0.0000000000
     19727       159  PMPG      H14S           37.7951629054       -2.8116946550       -4.4266738458  MEMB      159             0.0000000000
     19728       159  PMPG      C215           37.3712149444       -1.5701142747       -2.8266213816  MEMB      159             0.0000000000
     19729       159  PMPG      H15R           37.4294801217       -2.3660326269       -2.1860515399  MEMB      159             0.0000000000
     19730       159  PMPG      H15S           36.2287542326       -1.5216744952       -3.0335533188  MEMB      159             0.0000000000
     19731       159  PMPG      C216           38.0014949027       -0.6449387249       -1.8997093824  MEMB      159             0.0000000000
     19732       159  PMPG      H16R           37.0346487564       -0.2236453455       -2.0304281502  MEMB      159             0.0000000000
     19733       159  PMPG      H16S           38.7084804159       -0.0165157194       -2.4705918857  MEMB      159             0.0000000000
     19734       159  PMPG      H16T           37.5931399412       -0.2890027292       -0.9426989582  MEMB      159             0.0000000000
     19735       159  PMPG      C33            36.0388550480        5.4495946134      -12.2393438985  MEMB      159             0.0000000000
     19736       159  PMPG      H3X            36.7068180764        6.3303434872      -12.4091769394  MEMB      159             0.0000000000
     19737       159  PMPG      H3Y            36.5435150899        4.8789275915      -11.4252139828  MEMB      159             0.0000000000
     19738       159  PMPG      C34            34.6926948490        5.9718669321      -11.7314911535  MEMB      159             0.0000000000
     19739       159  PMPG      H4X            34.0181683490        5.1363920566      -11.4581824420  MEMB      159             0.0000000000
     19740       159  PMPG      H4Y            34.1927166602        6.5844018692      -12.5141210537  MEMB      159             0.0000000000
     19741       159  PMPG      C35            34.9274938170        6.8236700256      -10.5004479719  MEMB      159             0.0000000000
     19742       159  PMPG      H5X            34.0645220320        7.4948057275      -10.2835305659  MEMB      159             0.0000000000
     19743       159  PMPG      H5Y            35.8276667303        7.3961689586      -10.7471187324  MEMB      159             0.0000000000
     19744       159  PMPG      C36            35.2803516877        5.9819038298       -9.2810290875  MEMB      159             0.0000000000
     19745       159  PMPG      H6X            36.2460899711        5.4516654856       -9.4295929034  MEMB      159             0.0000000000
     19746       159  PMPG      H6Y            34.4235845496        5.3143110957       -9.0999895212  MEMB      159             0.0000000000
     19747       159  PMPG      C37            35.4457814248        6.7867584177       -8.0385478590  MEMB      159             0.0000000000
     19748       159  PMPG      H7X            34.5483370045        7.4493222446       -7.9826165928  MEMB      159             0.0000000000
     19749       159  PMPG      H7Y            36.4089487816        7.3361382492       -8.1675142345  MEMB      159             0.0000000000
     19750       159  PMPG      C38            35.4569065166        6.0749044191       -6.7035411112  MEMB      159             0.0000000000
     19751       159  PMPG      H8X            35.5775175333        6.7848941328       -5.8480697883  MEMB      159             0.0000000000
     19752       159  PMPG      H8Y            36.3368110815        5.4197117421       -6.6781830461  MEMB      159             0.0000000000
     19753       159  PMPG      C39            34.1594432701        5.3193698680       -6.5154253576  MEMB      159             0.0000000000
     19754       159  PMPG      H9X            34.0855073041        4.4107907033       -7.1121766019  MEMB      159             0.0000000000
     19755       159  PMPG      H9Y            33.3324760227        5.8859160256       -6.9636879416  MEMB      159             0.0000000000
     19756       159  PMPG      C310           33.9162450363        4.9546583352       -5.0760542511  MEMB      159             0.0000000000
     19757       159  PMPG      H10X           32.8250975634        4.8779452480       -4.8774222058  MEMB      159             0.0000000000
     19758       159  PMPG      H10Y           34.4551269332        5.6499316016       -4.4012601683  MEMB      159             0.0000000000
     19759       159  PMPG      C311           34.4557775023        3.6209374950       -4.7587838511  MEMB      159             0.0000000000
     19760       159  PMPG      H11X           35.5628669497        3.7561915198       -4.6656367093  MEMB      159             0.0000000000
     19761       159  PMPG      H11Y           34.1899737109        3.0019610047       -5.6397418485  MEMB      159             0.0000000000
     19762       159  PMPG      C312           33.8109097876        2.9317802851       -3.5594352029  MEMB      159             0.0000000000
     19763       159  PMPG      H12X           34.0677859195        1.8568101176       -3.5204612636  MEMB      159             0.0000000000
     19764       159  PMPG      H12Y           32.7098097967        3.0494541652       -3.5074386504  MEMB      159             0.0000000000
     19765       159  PMPG      C313           34.3118614010        3.5155785639       -2.2902910276  MEMB      159             0.0000000000
     19766       159  PMPG      H13X           34.2751832878        4.5912720393       -2.4674997635  MEMB      159             0.0000000000
     19767       159  PMPG      H13Y           35.3487882901        3.5526378035       -2.0820213940  MEMB      159             0.0000000000
     19768       159  PMPG      C314           33.8630212769        2.7768963764       -1.0425066814  MEMB      159             0.0000000000
     19769       159  PMPG      H14X           33.7593330778        1.6801553524       -0.8363796458  MEMB      159             0.0000000000
     19770       159  PMPG      H14Y           32.8412127933        2.5834243163       -1.3202926471  MEMB      159             0.0000000000
     19771       159  PMPG      C315           34.3283108429        3.6723014527        0.1499529466  MEMB      159             0.0000000000
     19772       159  PMPG      H15X           35.1533535206        3.0511851868        0.4151203914  MEMB      159             0.0000000000
     19773       159  PMPG      H15Y           33.6118573662        3.1690534673        0.8970229970  MEMB      159             0.0000000000
     19774       159  PMPG      C316           34.5396513961        5.5776938671        0.1566828944  MEMB      159             0.0000000000
     19775       159  PMPG      H16X           34.5253301140        4.8155167581        0.7355775539  MEMB      159             0.0000000000
     19776       159  PMPG      H16Y           33.7668683435        6.4038070897        0.5356366439  MEMB      159             0.0000000000
     19777       159  PMPG      H16Z           34.6272358457        5.9459750009       -0.7943053899  MEMB      159             0.0000000000
     19778       160  OYPE      N              20.4054729886      -29.8805764183      -17.2530584385  MEMB      160             0.0000000000
     19779       160  OYPE      HN1            19.5519305640      -29.6020052283      -16.7276592314  MEMB      160             0.0000000000
     19780       160  OYPE      HN2            20.4695758880      -30.9192633177      -17.2854785835  MEMB      160             0.0000000000
     19781       160  OYPE      HN3            21.2420494968      -29.4906879350      -16.7806632482  MEMB      160             0.0000000000
     19782       160  OYPE      C12            20.3775878313      -29.3291370542      -18.6520425316  MEMB      160             0.0000000000
     19783       160  OYPE      H12A           19.5047590576      -29.7609525410      -19.1685843515  MEMB      160             0.0000000000
     19784       160  OYPE      H12B           21.3043159404      -29.6525760059      -19.1562907545  MEMB      160             0.0000000000
     19785       160  OYPE      C11            20.2270841080      -27.8038391317      -18.6741862476  MEMB      160             0.0000000000
     19786       160  OYPE      H11A           19.4856529542      -27.5075315138      -17.8978056901  MEMB      160             0.0000000000
     19787       160  OYPE      H11B           19.8045612091      -27.5165631912      -19.6685632255  MEMB      160             0.0000000000
     19788       160  OYPE      P              22.5087723328      -26.7905424195      -19.5758074337  MEMB      160             0.0000000000
     19789       160  OYPE      O13            22.3768435176      -25.3535807676      -19.9262668502  MEMB      160             0.0000000000
     19790       160  OYPE      O14            22.3537666049      -27.8003346171      -20.6384550146  MEMB      160             0.0000000000
     19791       160  OYPE      O11            23.8377363317      -27.1388231040      -18.7653324460  MEMB      160             0.0000000000
     19792       160  OYPE      O12            21.4650897880      -27.1523755751      -18.4153560003  MEMB      160             0.0000000000
     19793       160  OYPE      C1             24.2049193387      -28.5252084962      -18.6642894947  MEMB      160             0.0000000000
     19794       160  OYPE      HA             24.7902397037      -28.8029354831      -19.5709269220  MEMB      160             0.0000000000
     19795       160  OYPE      HB             23.3275520979      -29.2096999233      -18.6242019642  MEMB      160             0.0000000000
     19796       160  OYPE      C2             25.0537210574      -28.8373732222      -17.3939896142  MEMB      160             0.0000000000
     19797       160  OYPE      HS             25.5529391875      -29.8184074448      -17.5803310354  MEMB      160             0.0000000000
     19798       160  OYPE      O21            24.2184365234      -28.9005805045      -16.2174179526  MEMB      160             0.0000000000
     19799       160  OYPE      C21            23.7178289450      -30.0671486311      -15.8805713819  MEMB      160             0.0000000000
     19800       160  OYPE      O22            23.6010705657      -31.0340457025      -16.6150027267  MEMB      160             0.0000000000
     19801       160  OYPE      C22            23.3052563116      -29.9869501259      -14.3926180692  MEMB      160             0.0000000000
     19802       160  OYPE      H2R            22.5298318933      -30.7566625869      -14.1741569296  MEMB      160             0.0000000000
     19803       160  OYPE      H2S            23.0449409613      -28.9642996626      -14.1110875338  MEMB      160             0.0000000000
     19804       160  OYPE      C3             26.2030396327      -27.8031097311      -17.1445809899  MEMB      160             0.0000000000
     19805       160  OYPE      HX             26.5073267072      -27.3518049648      -18.1104895083  MEMB      160             0.0000000000
     19806       160  OYPE      HY             27.0907729905      -28.3457684233      -16.7442229741  MEMB      160             0.0000000000
     19807       160  OYPE      O31            25.8276912930      -26.7138838832      -16.2925616461  MEMB      160             0.0000000000
     19808       160  OYPE      C31            26.2074151492      -26.7937209121      -15.0253722274  MEMB      160             0.0000000000
     19809       160  OYPE      O32            26.7725191053      -27.7169037984      -14.4913490088  MEMB      160             0.0000000000
     19810       160  OYPE      C32            25.7558934793      -25.5407483072      -14.3255066309  MEMB      160             0.0000000000
     19811       160  OYPE      H2X            26.6221318642      -24.8640168665      -14.1793266024  MEMB      160             0.0000000000
     19812       160  OYPE      H2Y            24.9718069479      -25.1147677396      -14.9652147966  MEMB      160             0.0000000000
     19813       160  OYPE      C23            24.4965439299      -30.1985128446      -13.4479603341  MEMB      160             0.0000000000
     19814       160  OYPE      H3R            25.3007959555      -30.3894416720      -14.1854499301  MEMB      160             0.0000000000
     19815       160  OYPE      H3S            24.2752830412      -31.2168509050      -13.1940544221  MEMB      160             0.0000000000
     19816       160  OYPE      C24            24.7705793905      -29.2441129292      -12.0831201900  MEMB      160             0.0000000000
     19817       160  OYPE      H4R            23.7437910405      -29.2575298951      -11.7389154837  MEMB      160             0.0000000000
     19818       160  OYPE      H4S            25.0316489119      -28.3125316221      -12.5605233384  MEMB      160             0.0000000000
     19819       160  OYPE      C25            25.6772137200      -29.4637668737      -10.6299114907  MEMB      160             0.0000000000
     19820       160  OYPE      H5R            25.9095782393      -28.7542163334       -9.8478333342  MEMB      160             0.0000000000
     19821       160  OYPE      H5S            26.7618737170      -29.4450236022      -11.0142061450  MEMB      160             0.0000000000
     19822       160  OYPE      C26            25.2600188497      -30.6637307021       -9.4959162814  MEMB      160             0.0000000000
     19823       160  OYPE      H6R            24.7164622500      -31.5009615320       -9.9284776267  MEMB      160             0.0000000000
     19824       160  OYPE      H6S            24.2192574082      -30.9409391061       -9.2860016251  MEMB      160             0.0000000000
     19825       160  OYPE      C27            26.4047800514      -31.5011990531       -8.7420421856  MEMB      160             0.0000000000
     19826       160  OYPE      H7R            26.7842910355      -30.7310442904       -8.0998716726  MEMB      160             0.0000000000
     19827       160  OYPE      H7S            27.3133118787      -31.9784305975       -9.2256266357  MEMB      160             0.0000000000
     19828       160  OYPE      C28            25.9619668464      -32.6693226874       -7.9057113404  MEMB      160             0.0000000000
     19829       160  OYPE      H8R            26.6851245406      -33.2159210155       -7.3314625540  MEMB      160             0.0000000000
     19830       160  OYPE      H8S            26.0166920356      -33.4915350074       -8.4684148957  MEMB      160             0.0000000000
     19831       160  OYPE      C29            24.5577532307      -32.7376567019       -7.5075076914  MEMB      160             0.0000000000
     19832       160  OYPE      H9R            23.9130358142      -33.4463111579       -7.9616478145  MEMB      160             0.0000000000
     19833       160  OYPE      C210           24.0400085793      -32.2574159543       -6.4605322043  MEMB      160             0.0000000000
     19834       160  OYPE      H10R           23.0452167924      -32.6215354791       -6.2025319001  MEMB      160             0.0000000000
     19835       160  OYPE      C211           24.9297930689      -31.5547465314       -5.5545239980  MEMB      160             0.0000000000
     19836       160  OYPE      H11R           24.5973243897      -30.5087624709       -5.4971631706  MEMB      160             0.0000000000
     19837       160  OYPE      H11S           25.9846999345      -31.5483903756       -5.9176233625  MEMB      160             0.0000000000
     19838       160  OYPE      C212           24.8746525454      -32.1546692481       -4.1811211955  MEMB      160             0.0000000000
     19839       160  OYPE      H12R           25.3606878581      -33.1695538764       -4.1784941247  MEMB      160             0.0000000000
     19840       160  OYPE      H12S           23.8205526799      -32.3027628177       -3.8609707791  MEMB      160             0.0000000000
     19841       160  OYPE      C213           25.4762512422      -31.0796859500       -3.2591203334  MEMB      160             0.0000000000
     19842       160  OYPE      H13R           25.7999955976      -31.5898874785       -2.3885179033  MEMB      160             0.0000000000
     19843       160  OYPE      H13S           24.8043144588      -30.4127179127       -2.7549251174  MEMB      160             0.0000000000
     19844       160  OYPE      C214           26.6001263742      -30.2056676460       -3.8770285849  MEMB      160             0.0000000000
     19845       160  OYPE      H14R           26.4285310661      -29.6302623856       -4.7624358010  MEMB      160             0.0000000000
     19846       160  OYPE      H14S           27.0424896791      -30.9114095667       -4.4985865788  MEMB      160             0.0000000000
     19847       160  OYPE      C215           27.5637475972      -29.3781059358       -3.0229490569  MEMB      160             0.0000000000
     19848       160  OYPE      H15R           27.0774223463      -28.9976262084       -2.0922081902  MEMB      160             0.0000000000
     19849       160  OYPE      H15S           28.4561818467      -28.9744784018       -3.5458523923  MEMB      160             0.0000000000
     19850       160  OYPE      C216           28.2836430187      -29.9623556251       -1.9988246098  MEMB      160             0.0000000000
     19851       160  OYPE      H16R           27.5555044775      -30.7104233998       -1.6395652032  MEMB      160             0.0000000000
     19852       160  OYPE      H16S           29.2274092551      -29.6680565868       -1.5110702590  MEMB      160             0.0000000000
     19853       160  OYPE      H16T           28.8055214113      -30.6780652196       -2.3809265612  MEMB      160             0.0000000000
     19854       160  OYPE      C33            25.0105034844      -25.8278356506      -13.0534782275  MEMB      160             0.0000000000
     19855       160  OYPE      H3X            25.1332737914      -25.0033329849      -12.3285668859  MEMB      160             0.0000000000
     19856       160  OYPE      H3Y            25.5514990325      -26.6165034124      -12.5319127347  MEMB      160             0.0000000000
     19857       160  OYPE      C34            23.5373607567      -26.1321127723      -13.4021307995  MEMB      160             0.0000000000
     19858       160  OYPE      H4X            23.0801864460      -25.2510900472      -13.8788212213  MEMB      160             0.0000000000
     19859       160  OYPE      H4Y            23.4036901383      -26.9567242130      -14.1167154231  MEMB      160             0.0000000000
     19860       160  OYPE      C35            22.7905241856      -26.4012167800      -12.1395413620  MEMB      160             0.0000000000
     19861       160  OYPE      H5X            23.0651597349      -25.4388067801      -11.6704443937  MEMB      160             0.0000000000
     19862       160  OYPE      H5Y            23.1967365905      -27.2751241256      -11.5972278663  MEMB      160             0.0000000000
     19863       160  OYPE      C36            21.2865968552      -26.4082643629      -12.1521052886  MEMB      160             0.0000000000
     19864       160  OYPE      H6X            20.9659709063      -25.3832614623      -12.4825259239  MEMB      160             0.0000000000
     19865       160  OYPE      H6Y            20.8355313549      -27.1931095329      -12.7811996351  MEMB      160             0.0000000000
     19866       160  OYPE      C37            20.7433482547      -26.6456770646      -10.7589057833  MEMB      160             0.0000000000
     19867       160  OYPE      H7X            21.0690077703      -25.7480298313      -10.1648989571  MEMB      160             0.0000000000
     19868       160  OYPE      H7Y            19.6298181719      -26.7111426724      -10.8844853920  MEMB      160             0.0000000000
     19869       160  OYPE      C38            21.1129419481      -27.8646484079       -9.9250387533  MEMB      160             0.0000000000
     19870       160  OYPE      H8X            22.1952914887      -28.0409966259      -10.0266565677  MEMB      160             0.0000000000
     19871       160  OYPE      H8Y            20.9418362149      -27.5985248247       -8.8550237997  MEMB      160             0.0000000000
     19872       160  OYPE      C39            20.2943448403      -29.0579074232      -10.3415017982  MEMB      160             0.0000000000
     19873       160  OYPE      H9X            20.6078020382      -29.4822059833      -11.3039482899  MEMB      160             0.0000000000
     19874       160  OYPE      C310           19.2134704337      -29.5688752398       -9.7155719313  MEMB      160             0.0000000000
     19875       160  OYPE      H10X           18.7396153278      -30.4607981387      -10.1549996531  MEMB      160             0.0000000000
     19876       160  OYPE      C311           18.5652873760      -29.0635347297       -8.4423472015  MEMB      160             0.0000000000
     19877       160  OYPE      H11X           18.9631610329      -28.0778540749       -8.1587624434  MEMB      160             0.0000000000
     19878       160  OYPE      H11Y           17.4721227205      -28.8979541470       -8.5973366666  MEMB      160             0.0000000000
     19879       160  OYPE      C312           18.7213852599      -30.0082655139       -7.2283125876  MEMB      160             0.0000000000
     19880       160  OYPE      H12X           18.4427916458      -31.0352716825       -7.5472548013  MEMB      160             0.0000000000
     19881       160  OYPE      H12Y           18.0018078015      -29.6805262566       -6.4429667388  MEMB      160             0.0000000000
     19882       160  OYPE      C313           20.1064435289      -30.0254398702       -6.5565489342  MEMB      160             0.0000000000
     19883       160  OYPE      H13X           20.1137794253      -30.7756188013       -5.7307800517  MEMB      160             0.0000000000
     19884       160  OYPE      H13Y           20.8796462417      -30.3385543718       -7.2845140614  MEMB      160             0.0000000000
     19885       160  OYPE      C314           20.5035115088      -28.6670200507       -5.9618255373  MEMB      160             0.0000000000
     19886       160  OYPE      H14X           19.6489449884      -28.2650010960       -5.3697282475  MEMB      160             0.0000000000
     19887       160  OYPE      H14Y           20.6890033755      -27.9531655140       -6.7872065782  MEMB      160             0.0000000000
     19888       160  OYPE      C315           21.7148173477      -28.7721714618       -5.0213607579  MEMB      160             0.0000000000
     19889       160  OYPE      H15X           22.6605898806      -28.8322439426       -5.5940237938  MEMB      160             0.0000000000
     19890       160  OYPE      H15Y           21.6213057109      -29.7298236358       -4.4681139579  MEMB      160             0.0000000000
     19891       160  OYPE      C316           21.7635255224      -27.6057525158       -4.0234400570  MEMB      160             0.0000000000
     19892       160  OYPE      H16X           20.7827161379      -27.5049926753       -3.5205090282  MEMB      160             0.0000000000
     19893       160  OYPE      H16Y           21.8752161197      -26.6646529697       -4.5905917118  MEMB      160             0.0000000000
     19894       160  OYPE      C317           22.8649642786      -27.6988179948       -2.9540627338  MEMB      160             0.0000000000
     19895       160  OYPE      H17X           23.8492738392      -27.8046513196       -3.4610611552  MEMB      160             0.0000000000
     19896       160  OYPE      H17Y           22.8048855764      -28.6013064499       -2.3228675250  MEMB      160             0.0000000000
     19897       160  OYPE      C318           22.8121617438      -26.5008071954       -2.0013025885  MEMB      160             0.0000000000
     19898       160  OYPE      H18X           21.9001925794      -26.4876606156       -1.3857552204  MEMB      160             0.0000000000
     19899       160  OYPE      H18Y           23.7053590036      -26.4878443856       -1.3397861190  MEMB      160             0.0000000000
     19900       160  OYPE      H18Z           22.7957104358      -25.5494398012       -2.5664701988  MEMB      160             0.0000000000
     19901       161  PMPE      N             -34.0081776924       -7.9433600569      -21.5908527483  MEMB      161             0.0000000000
     19902       161  PMPE      HN1           -34.7107100147       -7.2479579001      -21.8893967890  MEMB      161             0.0000000000
     19903       161  PMPE      HN2           -33.3994263940       -8.1905511245      -22.4008312332  MEMB      161             0.0000000000
     19904       161  PMPE      HN3           -34.4941153243       -8.7883324254      -21.2093708442  MEMB      161             0.0000000000
     19905       161  PMPE      C12           -33.1917731596       -7.3036702462      -20.5061651881  MEMB      161             0.0000000000
     19906       161  PMPE      H12A          -32.7282150019       -6.3770421192      -20.8987773662  MEMB      161             0.0000000000
     19907       161  PMPE      H12B          -32.4105368558       -8.0199779569      -20.2324703985  MEMB      161             0.0000000000
     19908       161  PMPE      C11           -34.0212368034       -6.9571359476      -19.2642021560  MEMB      161             0.0000000000
     19909       161  PMPE      H11A          -34.6153255980       -6.0424267952      -19.4941229913  MEMB      161             0.0000000000
     19910       161  PMPE      H11B          -33.3085577324       -6.6725254074      -18.4504395216  MEMB      161             0.0000000000
     19911       161  PMPE      P             -34.2470763348       -9.2928045604      -18.1369556818  MEMB      161             0.0000000000
     19912       161  PMPE      O13           -33.1483132059       -8.8096351857      -17.2851129660  MEMB      161             0.0000000000
     19913       161  PMPE      O14           -33.9453852475      -10.2558855584      -19.2116000923  MEMB      161             0.0000000000
     19914       161  PMPE      O11           -35.3913175750       -9.8432201220      -17.2452999732  MEMB      161             0.0000000000
     19915       161  PMPE      O12           -34.8851029045       -8.0284183447      -18.8604362319  MEMB      161             0.0000000000
     19916       161  PMPE      C1            -36.6029823230       -9.1405331562      -17.2744144678  MEMB      161             0.0000000000
     19917       161  PMPE      HA            -37.0358318062       -9.0749571197      -18.3191319895  MEMB      161             0.0000000000
     19918       161  PMPE      HB            -36.5260292383       -8.1105373986      -16.8606090103  MEMB      161             0.0000000000
     19919       161  PMPE      C2            -37.6440652155       -9.8879504325      -16.4698824026  MEMB      161             0.0000000000
     19920       161  PMPE      HS            -38.4258208283       -9.2638868957      -16.8912231671  MEMB      161             0.0000000000
     19921       161  PMPE      O21           -37.5464496244       -9.8599046365      -15.0182739820  MEMB      161             0.0000000000
     19922       161  PMPE      C21           -37.9908238470       -8.8132012691      -14.4347048876  MEMB      161             0.0000000000
     19923       161  PMPE      O22           -38.2940306262       -7.8248025474      -15.0382884071  MEMB      161             0.0000000000
     19924       161  PMPE      C22           -38.0498669270       -8.9034611908      -12.9051340648  MEMB      161             0.0000000000
     19925       161  PMPE      H2R           -37.0227753370       -8.6243402852      -12.6289599851  MEMB      161             0.0000000000
     19926       161  PMPE      H2S           -38.3006496620       -9.9362307782      -12.5880925034  MEMB      161             0.0000000000
     19927       161  PMPE      C3            -37.7693292076      -11.3708431227      -16.8055871489  MEMB      161             0.0000000000
     19928       161  PMPE      HX            -38.0490061900      -11.5329251554      -17.8769805980  MEMB      161             0.0000000000
     19929       161  PMPE      HY            -38.6055366556      -11.8099780274      -16.2520963001  MEMB      161             0.0000000000
     19930       161  PMPE      O31           -36.5932209624      -12.0686239639      -16.3636411143  MEMB      161             0.0000000000
     19931       161  PMPE      C31           -36.5824036243      -12.2282914641      -15.0390475835  MEMB      161             0.0000000000
     19932       161  PMPE      O32           -37.5258798655      -12.1665504987      -14.2742914275  MEMB      161             0.0000000000
     19933       161  PMPE      C32           -35.4179578332      -13.0252614875      -14.7227411156  MEMB      161             0.0000000000
     19934       161  PMPE      H2X           -35.2324764253      -13.7969604294      -15.5107013847  MEMB      161             0.0000000000
     19935       161  PMPE      H2Y           -35.6685054982      -13.4292155622      -13.6948790755  MEMB      161             0.0000000000
     19936       161  PMPE      C23           -38.9813504814       -7.9277298339      -12.1279956607  MEMB      161             0.0000000000
     19937       161  PMPE      H3R           -39.9056549987       -8.5272883200      -11.9833244618  MEMB      161             0.0000000000
     19938       161  PMPE      H3S           -39.2478581430       -6.9910722377      -12.6654269827  MEMB      161             0.0000000000
     19939       161  PMPE      C24           -38.4384706805       -7.6091196565      -10.7216169724  MEMB      161             0.0000000000
     19940       161  PMPE      H4R           -37.4873248827       -7.0455049411      -10.7387377533  MEMB      161             0.0000000000
     19941       161  PMPE      H4S           -38.2591215922       -8.6109792346      -10.2699370375  MEMB      161             0.0000000000
     19942       161  PMPE      C25           -39.4362763259       -6.9461231693       -9.7768584804  MEMB      161             0.0000000000
     19943       161  PMPE      H5R           -39.1527854221       -7.0705624332       -8.7085280120  MEMB      161             0.0000000000
     19944       161  PMPE      H5S           -40.3331439148       -7.5488535132       -9.9700600862  MEMB      161             0.0000000000
     19945       161  PMPE      C26           -39.7366015166       -5.4739577405      -10.0187530215  MEMB      161             0.0000000000
     19946       161  PMPE      H6R           -40.5253503029       -5.1186918795       -9.3344593348  MEMB      161             0.0000000000
     19947       161  PMPE      H6S           -40.1352874356       -5.3581765972      -11.0464517072  MEMB      161             0.0000000000
     19948       161  PMPE      C27           -38.5360392364       -4.5697386583       -9.8309679555  MEMB      161             0.0000000000
     19949       161  PMPE      H7R           -38.8399973303       -3.5768318060      -10.1607776399  MEMB      161             0.0000000000
     19950       161  PMPE      H7S           -37.7219411168       -4.9079830563      -10.5014011291  MEMB      161             0.0000000000
     19951       161  PMPE      C28           -38.0457364316       -4.3624987463       -8.4039889262  MEMB      161             0.0000000000
     19952       161  PMPE      H8R           -37.4510550268       -5.2546310333       -8.1236211162  MEMB      161             0.0000000000
     19953       161  PMPE      H8S           -38.8640038116       -4.2263140114       -7.6645894555  MEMB      161             0.0000000000
     19954       161  PMPE      C29           -37.2056231653       -3.0992260651       -8.4110600305  MEMB      161             0.0000000000
     19955       161  PMPE      H9R           -37.6505455011       -2.1472025991       -8.7589100004  MEMB      161             0.0000000000
     19956       161  PMPE      C217          -35.8394194151       -3.3333553792       -9.0628411354  MEMB      161             0.0000000000
     19957       161  PMPE      H17R          -35.4622949514       -2.4998053470       -9.6028675059  MEMB      161             0.0000000000
     19958       161  PMPE      H17S          -35.6654303746       -4.3418206856       -9.3778354836  MEMB      161             0.0000000000
     19959       161  PMPE      C210          -35.9807000455       -3.0959755879       -7.5716185274  MEMB      161             0.0000000000
     19960       161  PMPE      H10R          -35.5234922464       -2.2200364004       -7.1967544948  MEMB      161             0.0000000000
     19961       161  PMPE      C211          -35.5670198065       -4.2172655627       -6.6982978409  MEMB      161             0.0000000000
     19962       161  PMPE      H11R          -34.5796631696       -3.9129216462       -6.3126505596  MEMB      161             0.0000000000
     19963       161  PMPE      H11S          -35.5219309043       -5.1380977021       -7.3009329306  MEMB      161             0.0000000000
     19964       161  PMPE      C212          -36.4341878800       -4.3164130992       -5.4673042129  MEMB      161             0.0000000000
     19965       161  PMPE      H12R          -37.4230812581       -4.6956195208       -5.7915226637  MEMB      161             0.0000000000
     19966       161  PMPE      H12S          -36.5395723689       -3.3044415053       -5.0025249238  MEMB      161             0.0000000000
     19967       161  PMPE      C213          -35.8463830726       -5.2933686435       -4.4599381098  MEMB      161             0.0000000000
     19968       161  PMPE      H13R          -34.8209257503       -4.9832615078       -4.1540175478  MEMB      161             0.0000000000
     19969       161  PMPE      H13S          -35.7672681184       -6.2879404400       -4.9513716824  MEMB      161             0.0000000000
     19970       161  PMPE      C214          -36.7397917618       -5.3459636895       -3.2303641895  MEMB      161             0.0000000000
     19971       161  PMPE      H14R          -37.7814571264       -5.6268515982       -3.5137200489  MEMB      161             0.0000000000
     19972       161  PMPE      H14S          -36.7684584964       -4.3160569997       -2.8112672986  MEMB      161             0.0000000000
     19973       161  PMPE      C215          -36.2146146294       -6.2809859211       -2.1546867704  MEMB      161             0.0000000000
     19974       161  PMPE      H15R          -35.2295278953       -5.9232527421       -1.7763551206  MEMB      161             0.0000000000
     19975       161  PMPE      H15S          -36.0179128507       -7.2793597301       -2.5943198216  MEMB      161             0.0000000000
     19976       161  PMPE      C216          -37.2159980034       -6.4276949586       -1.0219271656  MEMB      161             0.0000000000
     19977       161  PMPE      H16R          -36.6822977944       -6.7842425828       -0.1482888645  MEMB      161             0.0000000000
     19978       161  PMPE      H16S          -37.7113758795       -5.4777722987       -0.7308657114  MEMB      161             0.0000000000
     19979       161  PMPE      H16T          -37.9640235636       -7.2057999897       -1.2573626066  MEMB      161             0.0000000000
     19980       161  PMPE      C33           -34.1952226074      -12.2907659054      -14.5657848984  MEMB      161             0.0000000000
     19981       161  PMPE      H3X           -33.8701562121      -11.8809591032      -15.5375079221  MEMB      161             0.0000000000
     19982       161  PMPE      H3Y           -33.5039922987      -13.1164899436      -14.2957485970  MEMB      161             0.0000000000
     19983       161  PMPE      C34           -34.4903659437      -11.3327728869      -13.4391383573  MEMB      161             0.0000000000
     19984       161  PMPE      H4X           -34.7705743382      -11.9257258293      -12.5358356324  MEMB      161             0.0000000000
     19985       161  PMPE      H4Y           -35.3641199565      -10.6720860824      -13.6182936746  MEMB      161             0.0000000000
     19986       161  PMPE      C35           -33.2494378750      -10.5472734001      -13.1587541415  MEMB      161             0.0000000000
     19987       161  PMPE      H5X           -33.0688889700       -9.8083066572      -13.9642196880  MEMB      161             0.0000000000
     19988       161  PMPE      H5Y           -32.4247051393      -11.2959994208      -13.2078852284  MEMB      161             0.0000000000
     19989       161  PMPE      C36           -33.3676880149       -9.8891987410      -11.7908982989  MEMB      161             0.0000000000
     19990       161  PMPE      H6X           -32.3498457133       -9.7403601511      -11.3704638041  MEMB      161             0.0000000000
     19991       161  PMPE      H6Y           -33.9455558623      -10.5581032661      -11.1059102946  MEMB      161             0.0000000000
     19992       161  PMPE      C37           -34.0015202932       -8.5233198191      -11.8477776382  MEMB      161             0.0000000000
     19993       161  PMPE      H7X           -35.0812732061       -8.6722140510      -12.0232444758  MEMB      161             0.0000000000
     19994       161  PMPE      H7Y           -33.5434050014       -7.9864256176      -12.7159829962  MEMB      161             0.0000000000
     19995       161  PMPE      C38           -33.7372319358       -7.6743871983      -10.6022601235  MEMB      161             0.0000000000
     19996       161  PMPE      H8X           -34.1728429334       -6.6712751546      -10.8020975516  MEMB      161             0.0000000000
     19997       161  PMPE      H8Y           -32.6296553960       -7.5703866953      -10.5097163466  MEMB      161             0.0000000000
     19998       161  PMPE      C39           -34.2389167552       -8.2008220794       -9.2443277537  MEMB      161             0.0000000000
     19999       161  PMPE      H9X           -34.0692668351       -9.2922429859       -9.1792594395  MEMB      161             0.0000000000
     20000       161  PMPE      H9Y           -35.3318752319       -8.0245164867       -9.1294400316  MEMB      161             0.0000000000
     20001       161  PMPE      C310          -33.4872947493       -7.5047379284       -8.0901421883  MEMB      161             0.0000000000
     20002       161  PMPE      H10X          -33.5401053726       -6.4095242081       -8.3013732878  MEMB      161             0.0000000000
     20003       161  PMPE      H10Y          -32.4115549434       -7.7786965175       -8.1107532003  MEMB      161             0.0000000000
     20004       161  PMPE      C311          -34.0340803648       -7.7968017230       -6.6770866757  MEMB      161             0.0000000000
     20005       161  PMPE      H11X          -35.1375446298       -7.9258435650       -6.7207384845  MEMB      161             0.0000000000
     20006       161  PMPE      H11Y          -33.8337414863       -6.9063593514       -6.0400567820  MEMB      161             0.0000000000
     20007       161  PMPE      C312          -33.4046679099       -9.0077785014       -5.9614231633  MEMB      161             0.0000000000
     20008       161  PMPE      H12X          -32.3300433542       -8.8415006365       -5.7359518742  MEMB      161             0.0000000000
     20009       161  PMPE      H12Y          -33.4729152111       -9.8971025447       -6.6120663253  MEMB      161             0.0000000000
     20010       161  PMPE      C313          -34.1068579841       -9.3655744211       -4.6555927926  MEMB      161             0.0000000000
     20011       161  PMPE      H13X          -34.4437908035       -8.4324893529       -4.1397674667  MEMB      161             0.0000000000
     20012       161  PMPE      H13Y          -33.3914634745       -9.8804642057       -3.9724126935  MEMB      161             0.0000000000
     20013       161  PMPE      C314          -35.2488967857      -10.3604124850       -4.9166718542  MEMB      161             0.0000000000
     20014       161  PMPE      H14X          -35.0051731561      -11.1301338796       -5.6572377022  MEMB      161             0.0000000000
     20015       161  PMPE      H14Y          -36.1464952290       -9.7773305850       -5.2436055370  MEMB      161             0.0000000000
     20016       161  PMPE      C315          -35.6389400534      -11.0814515977       -3.6896770346  MEMB      161             0.0000000000
     20017       161  PMPE      H15X          -34.8143409606      -11.5799158670       -3.0969989519  MEMB      161             0.0000000000
     20018       161  PMPE      H15Y          -36.4620966572      -11.8252929788       -3.8079401343  MEMB      161             0.0000000000
     20019       161  PMPE      C316          -36.1085923193       -9.9218974489       -2.9344216335  MEMB      161             0.0000000000
     20020       161  PMPE      H16X          -35.2107544357       -9.5175686471       -2.3877667311  MEMB      161             0.0000000000
     20021       161  PMPE      H16Y          -36.7941583681      -10.6055091593       -2.4249076037  MEMB      161             0.0000000000
     20022       161  PMPE      H16Z          -36.9719848568       -9.2464397760       -2.9009700822  MEMB      161             0.0000000000
     20023       162  QMPE      N             -12.3999610166      -32.6584605138      -21.9070538418  MEMB      162             0.0000000000
     20024       162  QMPE      HN1           -13.0623049451      -32.2108963906      -22.5722273420  MEMB      162             0.0000000000
     20025       162  QMPE      HN2           -11.7681670125      -31.9541203859      -21.4809086930  MEMB      162             0.0000000000
     20026       162  QMPE      HN3           -11.8301835265      -33.3782088485      -22.3897153760  MEMB      162             0.0000000000
     20027       162  QMPE      C12           -13.1676525150      -33.2645218027      -20.7664916471  MEMB      162             0.0000000000
     20028       162  QMPE      H12A          -14.0195107447      -33.8364250353      -21.1775141049  MEMB      162             0.0000000000
     20029       162  QMPE      H12B          -13.4908130265      -32.4140458028      -20.1394916381  MEMB      162             0.0000000000
     20030       162  QMPE      C11           -12.3292730140      -34.0810468890      -19.7911138431  MEMB      162             0.0000000000
     20031       162  QMPE      H11A          -11.9401985197      -35.0106716177      -20.2495052020  MEMB      162             0.0000000000
     20032       162  QMPE      H11B          -13.0232753403      -34.3666638763      -18.9546495447  MEMB      162             0.0000000000
     20033       162  QMPE      P             -10.8204377512      -33.1736018079      -17.8510229217  MEMB      162             0.0000000000
     20034       162  QMPE      O13           -11.9017919810      -32.4616362846      -17.1529132759  MEMB      162             0.0000000000
     20035       162  QMPE      O14            -9.4546050066      -32.6309832371      -17.8567238047  MEMB      162             0.0000000000
     20036       162  QMPE      O11           -10.7807343618      -34.6965236948      -17.4245505843  MEMB      162             0.0000000000
     20037       162  QMPE      O12           -11.2464062270      -33.2659872002      -19.3717392419  MEMB      162             0.0000000000
     20038       162  QMPE      C1             -9.5616616720      -35.4476186891      -17.5564226903  MEMB      162             0.0000000000
     20039       162  QMPE      HA             -8.7428324064      -34.9246968306      -18.1164285435  MEMB      162             0.0000000000
     20040       162  QMPE      HB             -9.7720086297      -36.3623860251      -18.1571498151  MEMB      162             0.0000000000
     20041       162  QMPE      C2             -9.0436667135      -35.8078226440      -16.1421643471  MEMB      162             0.0000000000
     20042       162  QMPE      HS             -8.0707943376      -36.2403608088      -16.0753369042  MEMB      162             0.0000000000
     20043       162  QMPE      O21            -9.9934509063      -36.6467445840      -15.4847131604  MEMB      162             0.0000000000
     20044       162  QMPE      C21           -10.1604139462      -37.9063998302      -15.9113967185  MEMB      162             0.0000000000
     20045       162  QMPE      O22            -9.5677140721      -38.5283610108      -16.7371646244  MEMB      162             0.0000000000
     20046       162  QMPE      C22           -11.2296291664      -38.5818482689      -15.1508305641  MEMB      162             0.0000000000
     20047       162  QMPE      H2R           -11.2191767725      -39.6617087180      -15.4197241632  MEMB      162             0.0000000000
     20048       162  QMPE      H2S           -12.1697911330      -38.1329136964      -15.5125231012  MEMB      162             0.0000000000
     20049       162  QMPE      C3             -8.7152528799      -34.5609454896      -15.2727651438  MEMB      162             0.0000000000
     20050       162  QMPE      HX             -9.6826648591      -34.0874199378      -15.0298041042  MEMB      162             0.0000000000
     20051       162  QMPE      HY             -8.0953184291      -33.8949810336      -15.9270643281  MEMB      162             0.0000000000
     20052       162  QMPE      O31            -7.9316950780      -34.9240076948      -14.1005248728  MEMB      162             0.0000000000
     20053       162  QMPE      C31            -7.5439446873      -33.8699459637      -13.3696009277  MEMB      162             0.0000000000
     20054       162  QMPE      O32            -7.9002377526      -32.7241017468      -13.5448534389  MEMB      162             0.0000000000
     20055       162  QMPE      C32            -6.5114700624      -34.3310341014      -12.3271654969  MEMB      162             0.0000000000
     20056       162  QMPE      H2X            -6.4588353795      -35.4373520341      -12.2783180109  MEMB      162             0.0000000000
     20057       162  QMPE      H2Y            -5.5153219560      -33.9757333186      -12.6703087252  MEMB      162             0.0000000000
     20058       162  QMPE      C23           -10.8950900116      -38.3732950593      -13.6789732914  MEMB      162             0.0000000000
     20059       162  QMPE      H3R           -10.5626052788      -37.3403161417      -13.4501495130  MEMB      162             0.0000000000
     20060       162  QMPE      H3S           -10.0999074460      -39.0543198749      -13.3904398184  MEMB      162             0.0000000000
     20061       162  QMPE      C24           -12.1155450292      -38.5174027483      -12.8492700909  MEMB      162             0.0000000000
     20062       162  QMPE      H4R           -12.5918135083      -39.4696379815      -13.0213826762  MEMB      162             0.0000000000
     20063       162  QMPE      H4S           -12.7565725517      -37.9205873812      -13.4391057762  MEMB      162             0.0000000000
     20064       162  QMPE      C25           -11.9773888661      -38.0188797321      -11.4181162689  MEMB      162             0.0000000000
     20065       162  QMPE      H5R           -11.1854046649      -38.4871080466      -10.8527078543  MEMB      162             0.0000000000
     20066       162  QMPE      H5S           -12.7288088256      -38.2495406548      -10.6899766204  MEMB      162             0.0000000000
     20067       162  QMPE      C26           -11.9757132293      -36.5301782520      -11.2723532778  MEMB      162             0.0000000000
     20068       162  QMPE      H6R           -12.9497575162      -36.1218414851      -11.6373493592  MEMB      162             0.0000000000
     20069       162  QMPE      H6S           -11.1545704270      -36.1093137345      -11.8755898038  MEMB      162             0.0000000000
     20070       162  QMPE      C27           -11.7123196982      -36.3012000315       -9.7910621291  MEMB      162             0.0000000000
     20071       162  QMPE      H7R           -10.7023105628      -36.6718878335       -9.5328637988  MEMB      162             0.0000000000
     20072       162  QMPE      H7S           -12.4485685241      -36.8815526764       -9.1871634286  MEMB      162             0.0000000000
     20073       162  QMPE      C28           -11.7204680563      -34.8542282777       -9.4486158774  MEMB      162             0.0000000000
     20074       162  QMPE      H8R           -11.1241333847      -34.2263386504      -10.1389334750  MEMB      162             0.0000000000
     20075       162  QMPE      H8S           -11.3575479974      -34.7016567886       -8.4029445629  MEMB      162             0.0000000000
     20076       162  QMPE      C29           -13.1145849341      -34.4411404689       -9.5490994887  MEMB      162             0.0000000000
     20077       162  QMPE      H9R           -13.6329515293      -34.2342247420      -10.5163311262  MEMB      162             0.0000000000
     20078       162  QMPE      C217          -13.1627007692      -33.2757390577       -8.6613650175  MEMB      162             0.0000000000
     20079       162  QMPE      H17R          -12.5739634364      -33.0690580102       -7.7905743818  MEMB      162             0.0000000000
     20080       162  QMPE      H17S          -13.4568691569      -32.4640271913       -9.3197486424  MEMB      162             0.0000000000
     20081       162  QMPE      C210          -14.0043926094      -34.5687640462       -8.3712321469  MEMB      162             0.0000000000
     20082       162  QMPE      H10R          -14.9636680226      -34.8786109229       -8.8305840156  MEMB      162             0.0000000000
     20083       162  QMPE      C211          -13.5376252279      -35.4311490632       -7.1897526820  MEMB      162             0.0000000000
     20084       162  QMPE      H11R          -13.3204254855      -36.4711197130       -7.4797309229  MEMB      162             0.0000000000
     20085       162  QMPE      H11S          -12.6477986058      -34.9324933517       -6.7446061517  MEMB      162             0.0000000000
     20086       162  QMPE      C212          -14.5741131421      -35.6311691769       -6.1060252530  MEMB      162             0.0000000000
     20087       162  QMPE      H12R          -14.3270804645      -36.4152848151       -5.3593433380  MEMB      162             0.0000000000
     20088       162  QMPE      H12S          -15.6004538980      -35.8345100096       -6.5031490286  MEMB      162             0.0000000000
     20089       162  QMPE      C213          -14.5706697800      -34.4129976952       -5.3084950980  MEMB      162             0.0000000000
     20090       162  QMPE      H13R          -15.1882590405      -33.7676585067       -5.9485098008  MEMB      162             0.0000000000
     20091       162  QMPE      H13S          -13.6411015151      -33.8955662863       -5.0128936742  MEMB      162             0.0000000000
     20092       162  QMPE      C214          -15.2905821385      -34.6686694055       -4.1006480695  MEMB      162             0.0000000000
     20093       162  QMPE      H14R          -14.7969194547      -34.9372809360       -3.1229691381  MEMB      162             0.0000000000
     20094       162  QMPE      H14S          -16.2617419614      -35.1808372619       -4.3091554722  MEMB      162             0.0000000000
     20095       162  QMPE      C215          -15.6120020069      -33.3426192872       -3.8881277264  MEMB      162             0.0000000000
     20096       162  QMPE      H15R          -16.0227232451      -32.7096928701       -4.6438896805  MEMB      162             0.0000000000
     20097       162  QMPE      H15S          -14.7155965488      -32.8022314711       -3.6388319941  MEMB      162             0.0000000000
     20098       162  QMPE      C216          -16.5620553091      -33.5817202661       -2.9593580534  MEMB      162             0.0000000000
     20099       162  QMPE      H16R          -17.6717073105      -33.4908754296       -2.8858950817  MEMB      162             0.0000000000
     20100       162  QMPE      H16S          -17.1070379045      -32.6928479448       -3.1448471253  MEMB      162             0.0000000000
     20101       162  QMPE      H16T          -16.1444290631      -33.9412372344       -2.0304615751  MEMB      162             0.0000000000
     20102       162  QMPE      C33            -6.8227155152      -33.7457538233      -10.9283215714  MEMB      162             0.0000000000
     20103       162  QMPE      H3X            -6.9370877260      -32.6406052985      -10.9977878946  MEMB      162             0.0000000000
     20104       162  QMPE      H3Y            -5.9682836150      -33.9815859254      -10.2531313263  MEMB      162             0.0000000000
     20105       162  QMPE      C34            -8.1304287074      -34.2639566347      -10.3159995303  MEMB      162             0.0000000000
     20106       162  QMPE      H4X            -8.1613521222      -35.3745220910      -10.3909321055  MEMB      162             0.0000000000
     20107       162  QMPE      H4Y            -8.9670023499      -33.8513076186      -10.9265000355  MEMB      162             0.0000000000
     20108       162  QMPE      C35            -8.3255600654      -33.8962170334       -8.8322442621  MEMB      162             0.0000000000
     20109       162  QMPE      H5X            -7.3856323136      -34.0690412901       -8.2644765248  MEMB      162             0.0000000000
     20110       162  QMPE      H5Y            -9.1001690522      -34.5817773801       -8.4250427822  MEMB      162             0.0000000000
     20111       162  QMPE      C36            -8.7925941012      -32.4570948325       -8.5771014201  MEMB      162             0.0000000000
     20112       162  QMPE      H6X            -9.7750809526      -32.3076337637       -9.0677952378  MEMB      162             0.0000000000
     20113       162  QMPE      H6Y            -8.0553754838      -31.7712006788       -9.0535733151  MEMB      162             0.0000000000
     20114       162  QMPE      C37            -8.8544627057      -32.0964521178       -7.0790238348  MEMB      162             0.0000000000
     20115       162  QMPE      H7X            -7.8545750319      -32.3338409130       -6.6470668399  MEMB      162             0.0000000000
     20116       162  QMPE      H7Y            -8.9890918183      -31.0053676160       -6.9391492070  MEMB      162             0.0000000000
     20117       162  QMPE      C38            -9.9892366130      -32.7467468017       -6.2635006644  MEMB      162             0.0000000000
     20118       162  QMPE      H8X           -10.9911589615      -32.4505762136       -6.6240050188  MEMB      162             0.0000000000
     20119       162  QMPE      H8Y            -9.9299836992      -33.8489075436       -6.4151645698  MEMB      162             0.0000000000
     20120       162  QMPE      C39            -9.9547927333      -32.2595206652       -4.7887336202  MEMB      162             0.0000000000
     20121       162  QMPE      H9X           -10.2286851605      -31.2047225990       -4.6629823653  MEMB      162             0.0000000000
     20122       162  QMPE      H9Y            -8.8942720134      -32.3906064313       -4.4517394382  MEMB      162             0.0000000000
     20123       162  QMPE      C310          -11.0580754533      -32.8949948600       -3.8379582008  MEMB      162             0.0000000000
     20124       162  QMPE      H10X          -11.9437535912      -33.2035774975       -4.3960862772  MEMB      162             0.0000000000
     20125       162  QMPE      H10Y          -11.0540702741      -32.5089260731       -2.7986526116  MEMB      162             0.0000000000
     20126       162  QMPE      C311          -10.7239323645      -34.1752744418       -3.1557443603  MEMB      162             0.0000000000
     20127       162  QMPE      H11X          -10.0632989693      -34.1853555987       -2.3612803305  MEMB      162             0.0000000000
     20128       162  QMPE      H11Y           -9.9446310243      -34.0314554603       -3.9374541367  MEMB      162             0.0000000000
     20129       162  QMPE      C312          -11.4621261554      -35.5966058111       -2.8557456140  MEMB      162             0.0000000000
     20130       162  QMPE      H12X          -12.1491300606      -35.8566999189       -3.7137542374  MEMB      162             0.0000000000
     20131       162  QMPE      H12Y          -12.1090906256      -35.3847421434       -2.0150607278  MEMB      162             0.0000000000
     20132       162  QMPE      C313          -10.5392077891      -36.9421040902       -2.3159360348  MEMB      162             0.0000000000
     20133       162  QMPE      H13X           -9.9555701534      -37.5857125872       -2.9977418800  MEMB      162             0.0000000000
     20134       162  QMPE      H13Y           -9.8192835070      -36.9887573525       -1.5330312364  MEMB      162             0.0000000000
     20135       162  QMPE      C314          -11.2528408694      -37.9800365709       -1.9878291119  MEMB      162             0.0000000000
     20136       162  QMPE      H14X          -11.8604492164      -37.6353269998       -2.8367925415  MEMB      162             0.0000000000
     20137       162  QMPE      H14Y          -11.8871351200      -37.4767280491       -1.3224203700  MEMB      162             0.0000000000
     20138       162  QMPE      C315          -10.7865023794      -39.5060961862       -1.7518352902  MEMB      162             0.0000000000
     20139       162  QMPE      H15X          -10.5478996184      -39.6307571933       -0.7335430436  MEMB      162             0.0000000000
     20140       162  QMPE      H15Y          -11.5262809401      -40.3625590397       -1.8084620152  MEMB      162             0.0000000000
     20141       162  QMPE      H15Z          -10.2532129651      -40.0524565513       -2.5378444243  MEMB      162             0.0000000000
     20142       163  PYPG      C13             8.0190361006       32.4144923839      -19.1291079162  MEMB      163             0.0000000000
     20143       163  PYPG      H13A            8.4569812092       32.0366440315      -20.0743952276  MEMB      163             0.0000000000
     20144       163  PYPG      H13B            8.3400723433       31.8113650521      -18.2766710052  MEMB      163             0.0000000000
     20145       163  PYPG      OC3             6.6169169880       32.1961809246      -19.0622602009  MEMB      163             0.0000000000
     20146       163  PYPG      HO3             6.2089564973       32.4102972859      -19.9015573161  MEMB      163             0.0000000000
     20147       163  PYPG      C12             8.5707627093       33.8003379452      -18.7071908562  MEMB      163             0.0000000000
     20148       163  PYPG      H12A            9.6778510030       33.7021053680      -18.5859108258  MEMB      163             0.0000000000
     20149       163  PYPG      OC2             8.0568939567       34.1069279342      -17.4453584518  MEMB      163             0.0000000000
     20150       163  PYPG      HO2             8.1559928019       35.0643521047      -17.3168748077  MEMB      163             0.0000000000
     20151       163  PYPG      C11             8.2804295397       34.9596585872      -19.6512546665  MEMB      163             0.0000000000
     20152       163  PYPG      H11A            8.5408900609       34.6007983402      -20.6232664591  MEMB      163             0.0000000000
     20153       163  PYPG      H11B            8.9645944275       35.8189739088      -19.4466016342  MEMB      163             0.0000000000
     20154       163  PYPG      P               6.3845454594       36.7104685075      -19.2964467509  MEMB      163             0.0000000000
     20155       163  PYPG      O13             4.9048486333       36.7651130992      -19.3424122502  MEMB      163             0.0000000000
     20156       163  PYPG      O14             7.1157153746       37.7459676665      -20.0686179188  MEMB      163             0.0000000000
     20157       163  PYPG      O11             6.9424318480       36.7421672934      -17.8247721473  MEMB      163             0.0000000000
     20158       163  PYPG      O12             6.8968220715       35.2813945257      -19.7442618033  MEMB      163             0.0000000000
     20159       163  PYPG      C1              6.4354159715       37.5815796891      -16.8150513257  MEMB      163             0.0000000000
     20160       163  PYPG      HA              5.3925305953       37.3012434340      -16.5354585376  MEMB      163             0.0000000000
     20161       163  PYPG      HB              6.4127166253       38.6490293197      -17.1398514133  MEMB      163             0.0000000000
     20162       163  PYPG      C2              7.3866697668       37.4462340681      -15.6066095329  MEMB      163             0.0000000000
     20163       163  PYPG      HS              8.2891549606       38.0348170168      -15.8853477723  MEMB      163             0.0000000000
     20164       163  PYPG      O21             7.7140587667       36.0971279827      -15.3240111670  MEMB      163             0.0000000000
     20165       163  PYPG      C21             8.8244412035       35.9373442400      -14.6437010556  MEMB      163             0.0000000000
     20166       163  PYPG      O22             9.5440906971       36.8202950243      -14.2245599067  MEMB      163             0.0000000000
     20167       163  PYPG      C22             9.1028213762       34.4565842768      -14.6458042026  MEMB      163             0.0000000000
     20168       163  PYPG      H2R             9.1999513679       34.1385782571      -15.6691843884  MEMB      163             0.0000000000
     20169       163  PYPG      H2S             8.2035483095       33.9387135981      -14.2551642272  MEMB      163             0.0000000000
     20170       163  PYPG      C3              6.7284699938       38.0322807216      -14.3868628138  MEMB      163             0.0000000000
     20171       163  PYPG      HX              6.5036474439       38.9827713173      -14.8240284831  MEMB      163             0.0000000000
     20172       163  PYPG      HY              7.3930189381       38.1691517377      -13.4985880321  MEMB      163             0.0000000000
     20173       163  PYPG      O31             5.4390985773       37.4792843935      -14.1684321902  MEMB      163             0.0000000000
     20174       163  PYPG      C31             5.3400258187       36.6879026555      -13.1415749629  MEMB      163             0.0000000000
     20175       163  PYPG      O32             6.1744336126       36.5389141803      -12.2661853829  MEMB      163             0.0000000000
     20176       163  PYPG      C32             4.0050037783       35.9713774820      -13.2630184579  MEMB      163             0.0000000000
     20177       163  PYPG      H2X             3.1980816511       36.7337512336      -13.3143745002  MEMB      163             0.0000000000
     20178       163  PYPG      H2Y             4.0229323598       35.3538317973      -14.1849844197  MEMB      163             0.0000000000
     20179       163  PYPG      C23            10.5001185411       34.0467698577      -14.1521104242  MEMB      163             0.0000000000
     20180       163  PYPG      H3R            11.2878764480       34.6526407820      -14.6419717945  MEMB      163             0.0000000000
     20181       163  PYPG      H3S            10.6183356682       32.9616588630      -14.4021514909  MEMB      163             0.0000000000
     20182       163  PYPG      C24            10.7124203992       34.2183924250      -12.6743254773  MEMB      163             0.0000000000
     20183       163  PYPG      H4R            11.1295913858       35.1769826238      -12.3199856458  MEMB      163             0.0000000000
     20184       163  PYPG      H4S            11.3303568477       33.3475294135      -12.3278114213  MEMB      163             0.0000000000
     20185       163  PYPG      C25             9.3820941260       34.1985412341      -12.0001059047  MEMB      163             0.0000000000
     20186       163  PYPG      H5R             9.1043681381       33.2383209716      -12.4565224202  MEMB      163             0.0000000000
     20187       163  PYPG      H5S             8.5278646906       34.8165057189      -12.2938038691  MEMB      163             0.0000000000
     20188       163  PYPG      C26             9.5729872031       34.4034840013      -10.5089972293  MEMB      163             0.0000000000
     20189       163  PYPG      H6R             9.8036838538       35.3672024202      -10.0602597791  MEMB      163             0.0000000000
     20190       163  PYPG      H6S            10.4538808399       33.7677274196      -10.2146109149  MEMB      163             0.0000000000
     20191       163  PYPG      C27             8.3125226454       34.3143582476       -9.6818346203  MEMB      163             0.0000000000
     20192       163  PYPG      H7R             7.5842485998       33.6322589470      -10.2181057999  MEMB      163             0.0000000000
     20193       163  PYPG      H7S             7.2999954682       34.6317367504      -10.0135278037  MEMB      163             0.0000000000
     20194       163  PYPG      C28             8.8416183028       34.0776543409       -8.0949562504  MEMB      163             0.0000000000
     20195       163  PYPG      H8R             7.9588855044       34.4661015246       -7.5616834977  MEMB      163             0.0000000000
     20196       163  PYPG      H8S             9.0504772106       35.0390416437       -7.6533811769  MEMB      163             0.0000000000
     20197       163  PYPG      C29             9.4722004600       32.7415720265       -7.3033558003  MEMB      163             0.0000000000
     20198       163  PYPG      H9R            10.5364431226       32.7569817504       -7.4942183389  MEMB      163             0.0000000000
     20199       163  PYPG      C210            9.0894209862       31.5140953060       -6.6238863133  MEMB      163             0.0000000000
     20200       163  PYPG      H10R            9.8428829128       30.7538521116       -6.3568371312  MEMB      163             0.0000000000
     20201       163  PYPG      C211            7.7940028940       30.7480011167       -6.2256440008  MEMB      163             0.0000000000
     20202       163  PYPG      H11R            7.7684648891       29.6444717037       -6.1255913423  MEMB      163             0.0000000000
     20203       163  PYPG      H11S            7.0133209823       30.6763823114       -6.9884090498  MEMB      163             0.0000000000
     20204       163  PYPG      C212            7.4709350836       31.3891037273       -4.8992075865  MEMB      163             0.0000000000
     20205       163  PYPG      H12R            7.3713576875       32.4600723138       -4.9609031858  MEMB      163             0.0000000000
     20206       163  PYPG      H12S            8.1860742357       31.2644931543       -4.0905502479  MEMB      163             0.0000000000
     20207       163  PYPG      C213            6.2252484708       31.0406699090       -4.2767318141  MEMB      163             0.0000000000
     20208       163  PYPG      H13R            5.9607663530       30.1172453763       -4.0036001145  MEMB      163             0.0000000000
     20209       163  PYPG      H13S            5.4772560127       31.0635917447       -5.0495826530  MEMB      163             0.0000000000
     20210       163  PYPG      C214            6.0847045207       31.7948198399       -3.0038054482  MEMB      163             0.0000000000
     20211       163  PYPG      H14R            6.7247758398       31.7352973403       -2.1503813013  MEMB      163             0.0000000000
     20212       163  PYPG      H14S            6.1994264640       32.8508963545       -3.2992475130  MEMB      163             0.0000000000
     20213       163  PYPG      C215            4.8007817884       31.4006947923       -2.4049126491  MEMB      163             0.0000000000
     20214       163  PYPG      H15R            4.2212777580       31.3728899485       -3.3171540449  MEMB      163             0.0000000000
     20215       163  PYPG      H15S            4.6113310179       32.1822850556       -1.6752471188  MEMB      163             0.0000000000
     20216       163  PYPG      C216            4.2199247347       30.0726498290       -2.2075651750  MEMB      163             0.0000000000
     20217       163  PYPG      H16R            4.6422099429       29.5250448553       -1.4019735400  MEMB      163             0.0000000000
     20218       163  PYPG      H16S            3.9936819028       29.6172603820       -3.1949923515  MEMB      163             0.0000000000
     20219       163  PYPG      H16T            3.2413150134       29.7331659268       -2.1631146867  MEMB      163             0.0000000000
     20220       163  PYPG      C33             3.7409901556       35.0279896915      -12.1012608331  MEMB      163             0.0000000000
     20221       163  PYPG      H3X             2.7154707199       34.6335886705      -12.2259079358  MEMB      163             0.0000000000
     20222       163  PYPG      H3Y             3.7547651341       35.5916541944      -11.1370552974  MEMB      163             0.0000000000
     20223       163  PYPG      C34             4.6842825286       33.8235214267      -12.1483056162  MEMB      163             0.0000000000
     20224       163  PYPG      H4X             5.7100495161       34.1384716485      -11.8586220526  MEMB      163             0.0000000000
     20225       163  PYPG      H4Y             4.7094328546       33.3057948593      -13.1188452338  MEMB      163             0.0000000000
     20226       163  PYPG      C35             4.2788371997       32.7544318783      -11.2134434610  MEMB      163             0.0000000000
     20227       163  PYPG      H5X             4.9113402890       31.8444960916      -11.2268190714  MEMB      163             0.0000000000
     20228       163  PYPG      H5Y             3.2804687790       32.3731973994      -11.3831353817  MEMB      163             0.0000000000
     20229       163  PYPG      C36             4.3976111889       33.3399330750       -9.8796403878  MEMB      163             0.0000000000
     20230       163  PYPG      H6X             5.0646530324       34.1849156096       -9.7115808284  MEMB      163             0.0000000000
     20231       163  PYPG      H6Y             4.5782490695       32.3443206103       -9.3728304679  MEMB      163             0.0000000000
     20232       163  PYPG      C37             3.1982736445       33.8770616940       -9.3051792522  MEMB      163             0.0000000000
     20233       163  PYPG      H7X             2.5338106423       34.5615873403       -9.7150629041  MEMB      163             0.0000000000
     20234       163  PYPG      H7Y             2.7779027019       32.8332377774       -9.5528755072  MEMB      163             0.0000000000
     20235       163  PYPG      C38             3.1045446282       34.6368326866       -7.9194476655  MEMB      163             0.0000000000
     20236       163  PYPG      H8X             3.2501584738       33.7523942415       -7.4578464985  MEMB      163             0.0000000000
     20237       163  PYPG      H8Y             2.2907454154       34.7617617334       -7.1645449905  MEMB      163             0.0000000000
     20238       163  PYPG      C39             4.0625845644       35.7136808315       -7.6771755302  MEMB      163             0.0000000000
     20239       163  PYPG      H9X             3.5739476140       36.2904825072       -8.4640260540  MEMB      163             0.0000000000
     20240       163  PYPG      H9Y             4.9962358702       35.3082153491       -8.0588420416  MEMB      163             0.0000000000
     20241       163  PYPG      C310            4.1244646870       36.4791759663       -6.2953158018  MEMB      163             0.0000000000
     20242       163  PYPG      H10X            3.0923339960       36.7167015763       -5.9751737396  MEMB      163             0.0000000000
     20243       163  PYPG      H10Y            4.7258790193       37.3273960814       -6.5371910607  MEMB      163             0.0000000000
     20244       163  PYPG      C311            4.9091061166       36.0591009885       -5.0159885955  MEMB      163             0.0000000000
     20245       163  PYPG      H11X            5.9437195055       35.6740539022       -5.0492618293  MEMB      163             0.0000000000
     20246       163  PYPG      H11Y            4.1867639322       35.4808935464       -4.4430907976  MEMB      163             0.0000000000
     20247       163  PYPG      C312            4.9730255987       36.7507822301       -3.7607118976  MEMB      163             0.0000000000
     20248       163  PYPG      H12X            5.8771171166       37.3072296171       -4.0251892376  MEMB      163             0.0000000000
     20249       163  PYPG      H12Y            3.9657829097       37.2218923321       -3.6550448928  MEMB      163             0.0000000000
     20250       163  PYPG      C313            5.4105061517       35.9367995273       -2.5643436143  MEMB      163             0.0000000000
     20251       163  PYPG      H13X            5.0097202359       36.5175525759       -1.7266637143  MEMB      163             0.0000000000
     20252       163  PYPG      H13Y            4.8486275105       35.0247484918       -2.4234790635  MEMB      163             0.0000000000
     20253       163  PYPG      C314            6.9158346431       35.6160669063       -2.5104320319  MEMB      163             0.0000000000
     20254       163  PYPG      H14X            7.2491973039       35.0578898527       -3.4176776797  MEMB      163             0.0000000000
     20255       163  PYPG      H14Y            7.5127907043       36.5535780455       -2.4643497874  MEMB      163             0.0000000000
     20256       163  PYPG      C315            7.2010578385       34.7342562795       -1.2985347495  MEMB      163             0.0000000000
     20257       163  PYPG      H15X            6.4697226362       33.8921443893       -1.3454958508  MEMB      163             0.0000000000
     20258       163  PYPG      H15Y            8.2327908006       34.3311627138       -1.3434499551  MEMB      163             0.0000000000
     20259       163  PYPG      C316            6.9861393213       35.4716709799        0.0059371502  MEMB      163             0.0000000000
     20260       163  PYPG      H16X            5.9211448781       35.7535822375        0.0246614519  MEMB      163             0.0000000000
     20261       163  PYPG      H16Y            7.5735247674       36.4098815161        0.0536847220  MEMB      163             0.0000000000
     20262       163  PYPG      H16Z            7.1939295691       34.8547253404        0.9049964702  MEMB      163             0.0000000000
     20263       164  PMPG      C13           -34.4821839210       15.4967491098      -20.6347285211  MEMB      164             0.0000000000
     20264       164  PMPG      H13A          -35.1631945256       15.0076961044      -21.3527684628  MEMB      164             0.0000000000
     20265       164  PMPG      H13B          -34.6088074035       16.6005255933      -20.6586004724  MEMB      164             0.0000000000
     20266       164  PMPG      OC3           -33.1526843657       15.2081307868      -21.0603975357  MEMB      164             0.0000000000
     20267       164  PMPG      HO3           -32.6244493428       15.2921297534      -20.2486430625  MEMB      164             0.0000000000
     20268       164  PMPG      C12           -34.8826201488       15.0407333778      -19.1954089557  MEMB      164             0.0000000000
     20269       164  PMPG      H12A          -35.9204938620       15.4031340486      -19.0164482595  MEMB      164             0.0000000000
     20270       164  PMPG      OC2           -34.1185452389       15.7198875228      -18.2189145037  MEMB      164             0.0000000000
     20271       164  PMPG      HO2           -34.2025496891       15.1414199962      -17.4553570253  MEMB      164             0.0000000000
     20272       164  PMPG      C11           -34.9069872367       13.5033105052      -18.9517311285  MEMB      164             0.0000000000
     20273       164  PMPG      H11A          -35.7512841443       13.1044726702      -19.5581845686  MEMB      164             0.0000000000
     20274       164  PMPG      H11B          -35.1670578044       13.2704612774      -17.8942875055  MEMB      164             0.0000000000
     20275       164  PMPG      P             -32.4272878610       12.5901236792      -18.4649816132  MEMB      164             0.0000000000
     20276       164  PMPG      O13           -31.9908587315       13.8612254696      -17.8409193506  MEMB      164             0.0000000000
     20277       164  PMPG      O14           -31.4327640474       11.8236654103      -19.2455460265  MEMB      164             0.0000000000
     20278       164  PMPG      O11           -33.0276520178       11.7075653497      -17.3587060508  MEMB      164             0.0000000000
     20279       164  PMPG      O12           -33.7104150416       12.8546573277      -19.3763583942  MEMB      164             0.0000000000
     20280       164  PMPG      C1            -33.3898458017       10.3804448110      -17.7453487802  MEMB      164             0.0000000000
     20281       164  PMPG      HA            -32.9320032980        9.9420532774      -18.6522632575  MEMB      164             0.0000000000
     20282       164  PMPG      HB            -34.4885550982       10.3965551783      -17.9395048231  MEMB      164             0.0000000000
     20283       164  PMPG      C2            -32.9017234064        9.5165776644      -16.5498910969  MEMB      164             0.0000000000
     20284       164  PMPG      HS            -33.2856563516        8.4178633196      -16.6297780988  MEMB      164             0.0000000000
     20285       164  PMPG      O21           -33.0922185230       10.0958491326      -15.3448906780  MEMB      164             0.0000000000
     20286       164  PMPG      C21           -34.1841031349       10.0632459342      -15.2760947062  MEMB      164             0.0000000000
     20287       164  PMPG      O22           -34.9785664193        9.3808604431      -15.9711223432  MEMB      164             0.0000000000
     20288       164  PMPG      C22           -33.9113723836       10.6071555528      -13.8117336321  MEMB      164             0.0000000000
     20289       164  PMPG      H2R           -34.6940209944       10.3485974812      -13.1938112532  MEMB      164             0.0000000000
     20290       164  PMPG      H2S           -33.8365658229       11.6975415026      -13.8587639435  MEMB      164             0.0000000000
     20291       164  PMPG      C3            -31.5561379563        9.2508660948      -16.3688678912  MEMB      164             0.0000000000
     20292       164  PMPG      HX            -31.4963185947        9.0622475161      -17.4418578704  MEMB      164             0.0000000000
     20293       164  PMPG      HY            -31.5404165646        8.3914650900      -15.5991941245  MEMB      164             0.0000000000
     20294       164  PMPG      O31           -30.7582928657       10.3648529591      -16.1041331840  MEMB      164             0.0000000000
     20295       164  PMPG      C31           -30.2087941979       10.3480029329      -14.9704323402  MEMB      164             0.0000000000
     20296       164  PMPG      O32           -30.2376204664        9.4917096465      -14.0991752164  MEMB      164             0.0000000000
     20297       164  PMPG      C32           -29.5839385366       11.6880695801      -14.8999701920  MEMB      164             0.0000000000
     20298       164  PMPG      H2X           -30.3718452792       12.4302234217      -15.1682788767  MEMB      164             0.0000000000
     20299       164  PMPG      H2Y           -28.8029834784       11.7658394388      -15.6885900869  MEMB      164             0.0000000000
     20300       164  PMPG      C23           -33.8141460835        9.8893129526      -12.4091206773  MEMB      164             0.0000000000
     20301       164  PMPG      H3R           -32.7785202080       10.2028750093      -12.4283097580  MEMB      164             0.0000000000
     20302       164  PMPG      H3S           -34.0567869769        8.8120721284      -12.5630566181  MEMB      164             0.0000000000
     20303       164  PMPG      C24           -34.5261560318       10.4669595958      -11.1161541276  MEMB      164             0.0000000000
     20304       164  PMPG      H4R           -35.2846029753        9.7853389487      -10.7035918179  MEMB      164             0.0000000000
     20305       164  PMPG      H4S           -34.9344488954       11.4983096884      -11.0446339420  MEMB      164             0.0000000000
     20306       164  PMPG      C25           -33.6904143357       10.2585007401       -9.9405709700  MEMB      164             0.0000000000
     20307       164  PMPG      H5R           -33.2590766496        9.2361801607      -10.1376655199  MEMB      164             0.0000000000
     20308       164  PMPG      H5S           -34.3242322706       10.2946676739       -9.0123737573  MEMB      164             0.0000000000
     20309       164  PMPG      C26           -32.6562575827       11.2426663627       -9.8371015772  MEMB      164             0.0000000000
     20310       164  PMPG      H6R           -33.1010862125       12.1637621684       -9.3999867250  MEMB      164             0.0000000000
     20311       164  PMPG      H6S           -32.3146871543       11.4394808077      -10.8719480041  MEMB      164             0.0000000000
     20312       164  PMPG      C27           -31.6453177984       10.5460084493       -8.9904965981  MEMB      164             0.0000000000
     20313       164  PMPG      H7R           -31.2027198589        9.6814183698       -9.5503100505  MEMB      164             0.0000000000
     20314       164  PMPG      H7S           -32.1068109276       10.1134579355       -8.0719943253  MEMB      164             0.0000000000
     20315       164  PMPG      C28           -30.6841700998       11.5890745168       -8.5344289926  MEMB      164             0.0000000000
     20316       164  PMPG      H8R           -31.2615672114       12.3667387304       -8.0069801025  MEMB      164             0.0000000000
     20317       164  PMPG      H8S           -30.1317481127       12.0440288919       -9.3833045572  MEMB      164             0.0000000000
     20318       164  PMPG      C29           -29.7924227827       10.8598552609       -7.6140113979  MEMB      164             0.0000000000
     20319       164  PMPG      H9R           -29.5572889116        9.8540240631       -7.9727337850  MEMB      164             0.0000000000
     20320       164  PMPG      C217          -29.0833602548       11.6249190059       -6.5209931156  MEMB      164             0.0000000000
     20321       164  PMPG      H17R          -28.1549821292       11.3819586564       -6.0271025207  MEMB      164             0.0000000000
     20322       164  PMPG      H17S          -29.3331037266       12.5950516612       -6.7742575400  MEMB      164             0.0000000000
     20323       164  PMPG      C210          -30.2375010486       10.6833454682       -6.2155412495  MEMB      164             0.0000000000
     20324       164  PMPG      H10R          -30.1591623940        9.6498763066       -5.8380169100  MEMB      164             0.0000000000
     20325       164  PMPG      C211          -31.1494658404       11.5214204236       -5.5315773788  MEMB      164             0.0000000000
     20326       164  PMPG      H11R          -31.2821399535       12.4743376614       -6.0548444379  MEMB      164             0.0000000000
     20327       164  PMPG      H11S          -32.0632889447       10.8798165767       -5.5293479928  MEMB      164             0.0000000000
     20328       164  PMPG      C212          -30.4355648657       11.7953972414       -4.2215424950  MEMB      164             0.0000000000
     20329       164  PMPG      H12R          -30.8611540519       12.7388075092       -3.8308465271  MEMB      164             0.0000000000
     20330       164  PMPG      H12S          -29.3367309608       11.8320872609       -4.1018413971  MEMB      164             0.0000000000
     20331       164  PMPG      C213          -30.7160140324       10.7031571386       -3.3141088561  MEMB      164             0.0000000000
     20332       164  PMPG      H13R          -30.7261062581        9.6232489088       -3.5127466207  MEMB      164             0.0000000000
     20333       164  PMPG      H13S          -31.7650111951       10.6914996507       -3.6438022152  MEMB      164             0.0000000000
     20334       164  PMPG      C214          -30.1387634908       11.0423138216       -1.9495544659  MEMB      164             0.0000000000
     20335       164  PMPG      H14R          -30.4031691397       11.8558955147       -1.2067044560  MEMB      164             0.0000000000
     20336       164  PMPG      H14S          -29.0381165991       11.0005203700       -1.8203972507  MEMB      164             0.0000000000
     20337       164  PMPG      C215          -30.8429572604       10.0031766302       -1.2786109883  MEMB      164             0.0000000000
     20338       164  PMPG      H15R          -30.5632837247       10.3038691804       -0.1950879397  MEMB      164             0.0000000000
     20339       164  PMPG      H15S          -30.0817596193        9.4776469709       -0.6737192349  MEMB      164             0.0000000000
     20340       164  PMPG      C216          -32.2867484331        9.0891307565       -1.8861456709  MEMB      164             0.0000000000
     20341       164  PMPG      H16R          -32.5552493837        8.0806033977       -1.4399065830  MEMB      164             0.0000000000
     20342       164  PMPG      H16S          -32.3535182265        8.7956551917       -2.8854130050  MEMB      164             0.0000000000
     20343       164  PMPG      H16T          -33.2931578906        9.4591836400       -1.4643013219  MEMB      164             0.0000000000
     20344       164  PMPG      C33           -29.1290384753       11.8615520664      -13.4629509696  MEMB      164             0.0000000000
     20345       164  PMPG      H3X           -28.2640586683       11.1914223651      -13.2160747322  MEMB      164             0.0000000000
     20346       164  PMPG      H3Y           -29.9449385004       11.7204662187      -12.7287824812  MEMB      164             0.0000000000
     20347       164  PMPG      C34           -28.6423972048       13.2490856598      -13.2709692642  MEMB      164             0.0000000000
     20348       164  PMPG      H4X           -27.8730295355       13.2108211841      -14.0804784380  MEMB      164             0.0000000000
     20349       164  PMPG      H4Y           -28.1484203218       13.3195251653      -12.2823659469  MEMB      164             0.0000000000
     20350       164  PMPG      C35           -29.6108362906       14.4494751740      -13.4599353132  MEMB      164             0.0000000000
     20351       164  PMPG      H5X           -29.9129726218       14.5446995330      -14.5243842587  MEMB      164             0.0000000000
     20352       164  PMPG      H5Y           -29.1328979848       15.4221262216      -13.1876449533  MEMB      164             0.0000000000
     20353       164  PMPG      C36           -30.7697860302       14.3907435963      -12.5054068447  MEMB      164             0.0000000000
     20354       164  PMPG      H6X           -30.3328036721       14.3284260954      -11.4824952034  MEMB      164             0.0000000000
     20355       164  PMPG      H6Y           -31.3268931994       13.4660468336      -12.7502753830  MEMB      164             0.0000000000
     20356       164  PMPG      C37           -31.7426318077       15.5576932114      -12.6226697359  MEMB      164             0.0000000000
     20357       164  PMPG      H7X           -32.1789334138       15.5414490873      -13.6480708108  MEMB      164             0.0000000000
     20358       164  PMPG      H7Y           -31.1990888733       16.5166621348      -12.5429567211  MEMB      164             0.0000000000
     20359       164  PMPG      C38           -32.8617303469       15.4020712121      -11.5728545344  MEMB      164             0.0000000000
     20360       164  PMPG      H8X           -33.2135245572       14.3525781394      -11.5611244915  MEMB      164             0.0000000000
     20361       164  PMPG      H8Y           -33.7033453387       16.0753199127      -11.8607780602  MEMB      164             0.0000000000
     20362       164  PMPG      C39           -32.4330150453       15.6970533248      -10.1247487510  MEMB      164             0.0000000000
     20363       164  PMPG      H9X           -32.3121627090       16.7328200532      -10.1806869142  MEMB      164             0.0000000000
     20364       164  PMPG      H9Y           -31.4328943565       15.3280654192       -9.8470636189  MEMB      164             0.0000000000
     20365       164  PMPG      C310          -33.5178148879       15.6444523245       -9.0341493174  MEMB      164             0.0000000000
     20366       164  PMPG      H10X          -33.6969635813       14.5750663145       -8.8539730590  MEMB      164             0.0000000000
     20367       164  PMPG      H10Y          -34.4270868095       16.1215069403       -9.4534118097  MEMB      164             0.0000000000
     20368       164  PMPG      C311          -33.2747591854       16.3834437330       -7.6912562327  MEMB      164             0.0000000000
     20369       164  PMPG      H11X          -34.2358026531       16.4978685952       -7.1498335815  MEMB      164             0.0000000000
     20370       164  PMPG      H11Y          -32.9663009665       17.4153542413       -7.8418339282  MEMB      164             0.0000000000
     20371       164  PMPG      C312          -32.2857712310       15.6894244183       -6.7673316401  MEMB      164             0.0000000000
     20372       164  PMPG      H12X          -31.2565394707       15.7181743126       -7.1884834022  MEMB      164             0.0000000000
     20373       164  PMPG      H12Y          -32.6388959312       14.6337334425       -6.7008166332  MEMB      164             0.0000000000
     20374       164  PMPG      C313          -32.2384785665       16.2039848852       -5.3316900574  MEMB      164             0.0000000000
     20375       164  PMPG      H13X          -33.2606538985       16.3961967798       -4.9419408207  MEMB      164             0.0000000000
     20376       164  PMPG      H13Y          -31.6431758566       17.1435666891       -5.2061383719  MEMB      164             0.0000000000
     20377       164  PMPG      C314          -31.6510333126       15.1000425334       -4.4645789866  MEMB      164             0.0000000000
     20378       164  PMPG      H14X          -30.7923372206       14.6248098465       -4.9906926682  MEMB      164             0.0000000000
     20379       164  PMPG      H14Y          -32.3904109608       14.3154677789       -4.2551054056  MEMB      164             0.0000000000
     20380       164  PMPG      C315          -31.2152631299       15.6858331820       -3.1493722797  MEMB      164             0.0000000000
     20381       164  PMPG      H15X          -31.9745717092       16.3653769817       -2.7260413768  MEMB      164             0.0000000000
     20382       164  PMPG      H15Y          -30.4729874730       16.3255077382       -3.5625391751  MEMB      164             0.0000000000
     20383       164  PMPG      C316          -30.6462355964       14.7134022203       -2.1299187810  MEMB      164             0.0000000000
     20384       164  PMPG      H16X          -31.4774631336       14.1291355495       -1.8307810872  MEMB      164             0.0000000000
     20385       164  PMPG      H16Y          -30.4758919662       15.0171960721       -1.1055805434  MEMB      164             0.0000000000
     20386       164  PMPG      H16Z          -29.7232541961       14.1836319835       -2.4349462574  MEMB      164             0.0000000000
     20387       165  OYPE      N             -36.6792887459        3.8009531937      -21.4179647186  MEMB      165             0.0000000000
     20388       165  OYPE      HN1           -35.8319546169        4.3942724938      -21.5460637054  MEMB      165             0.0000000000
     20389       165  OYPE      HN2           -36.4483120458        3.0525118892      -20.7320976894  MEMB      165             0.0000000000
     20390       165  OYPE      HN3           -36.9194221602        3.3597416747      -22.3432404806  MEMB      165             0.0000000000
     20391       165  OYPE      C12           -37.8113962802        4.6463284835      -20.8835186171  MEMB      165             0.0000000000
     20392       165  OYPE      H12A          -38.7022230366        4.0382484393      -20.8770464840  MEMB      165             0.0000000000
     20393       165  OYPE      H12B          -38.0089923948        5.4087070056      -21.6338554970  MEMB      165             0.0000000000
     20394       165  OYPE      C11           -37.6153404001        5.2123686513      -19.4582309201  MEMB      165             0.0000000000
     20395       165  OYPE      H11A          -37.4983238562        4.3762635242      -18.7429387200  MEMB      165             0.0000000000
     20396       165  OYPE      H11B          -38.5311371491        5.7335138346      -19.0880284145  MEMB      165             0.0000000000
     20397       165  OYPE      P             -35.9100677718        6.4802292788      -17.9952916738  MEMB      165             0.0000000000
     20398       165  OYPE      O13           -34.8446764413        7.4511866702      -18.2424722613  MEMB      165             0.0000000000
     20399       165  OYPE      O14           -35.5716211588        5.2020527934      -17.3460401126  MEMB      165             0.0000000000
     20400       165  OYPE      O11           -37.1646713389        7.1339163006      -17.2863968765  MEMB      165             0.0000000000
     20401       165  OYPE      O12           -36.5357755777        6.1409953962      -19.4320634760  MEMB      165             0.0000000000
     20402       165  OYPE      C1            -37.5488785835        8.4696937112      -17.6741055824  MEMB      165             0.0000000000
     20403       165  OYPE      HA            -38.1486360020        8.4513182494      -18.5968229557  MEMB      165             0.0000000000
     20404       165  OYPE      HB            -36.6685349271        9.1279563293      -17.8768299058  MEMB      165             0.0000000000
     20405       165  OYPE      C2            -38.4953272892        9.1914937721      -16.6639176470  MEMB      165             0.0000000000
     20406       165  OYPE      HS            -38.7324881085       10.1813459730      -17.1438128979  MEMB      165             0.0000000000
     20407       165  OYPE      O21           -37.9402571598        9.4090084000      -15.4277816526  MEMB      165             0.0000000000
     20408       165  OYPE      C21           -37.1658954716       10.3193967518      -15.3785900439  MEMB      165             0.0000000000
     20409       165  OYPE      O22           -36.8203226793       11.1562590191      -16.2209945649  MEMB      165             0.0000000000
     20410       165  OYPE      C22           -36.5861078071       10.0523815933      -14.0552474377  MEMB      165             0.0000000000
     20411       165  OYPE      H2R           -35.8455491744        9.1877117832      -14.1736343094  MEMB      165             0.0000000000
     20412       165  OYPE      H2S           -36.5942609861        9.1012593565      -13.4774677702  MEMB      165             0.0000000000
     20413       165  OYPE      C3            -39.7644336495        8.4743510732      -16.2410685908  MEMB      165             0.0000000000
     20414       165  OYPE      HX            -40.3060485240        8.2952857214      -17.1756027350  MEMB      165             0.0000000000
     20415       165  OYPE      HY            -40.3766144628        9.1495308416      -15.5900652807  MEMB      165             0.0000000000
     20416       165  OYPE      O31           -39.4593311688        7.2033297394      -15.6248071134  MEMB      165             0.0000000000
     20417       165  OYPE      C31           -39.3078696316        7.0233044173      -14.3270846863  MEMB      165             0.0000000000
     20418       165  OYPE      O32           -39.5510244059        7.8102160171      -13.4329718009  MEMB      165             0.0000000000
     20419       165  OYPE      C32           -38.8870371721        5.5701735784      -14.1001652187  MEMB      165             0.0000000000
     20420       165  OYPE      H2X           -39.6600608061        5.0549453997      -13.5518963832  MEMB      165             0.0000000000
     20421       165  OYPE      H2Y           -38.7248547100        5.0496040403      -15.0614292142  MEMB      165             0.0000000000
     20422       165  OYPE      C23           -36.3360904458       11.5699651130      -13.5411231695  MEMB      165             0.0000000000
     20423       165  OYPE      H3R           -35.9564357199       12.3442136473      -14.2550254613  MEMB      165             0.0000000000
     20424       165  OYPE      H3S           -35.5255259495       11.9388695831      -12.8514629418  MEMB      165             0.0000000000
     20425       165  OYPE      C24           -37.3287774492       11.7021426277      -12.5030379480  MEMB      165             0.0000000000
     20426       165  OYPE      H4R           -38.0826446800       11.6854104723      -13.3069645239  MEMB      165             0.0000000000
     20427       165  OYPE      H4S           -37.1249474510       12.6735245972      -11.9801845488  MEMB      165             0.0000000000
     20428       165  OYPE      C25           -37.5094246656       10.3961349394      -11.6901511265  MEMB      165             0.0000000000
     20429       165  OYPE      H5R           -36.7016277977        9.6857894575      -11.6547050413  MEMB      165             0.0000000000
     20430       165  OYPE      H5S           -38.0614656031        9.6241378544      -12.2533764505  MEMB      165             0.0000000000
     20431       165  OYPE      C26           -38.0268285624       10.6024717378      -10.2864253467  MEMB      165             0.0000000000
     20432       165  OYPE      H6R           -38.1735761794        9.6063795181       -9.8073430098  MEMB      165             0.0000000000
     20433       165  OYPE      H6S           -39.0086901347       11.0925283378      -10.4247458227  MEMB      165             0.0000000000
     20434       165  OYPE      C27           -37.0775326599       11.3770863921       -9.3624196068  MEMB      165             0.0000000000
     20435       165  OYPE      H7R           -36.5271718421       12.2069442573       -9.8661811764  MEMB      165             0.0000000000
     20436       165  OYPE      H7S           -36.3436745124       10.6442058956       -8.9806671057  MEMB      165             0.0000000000
     20437       165  OYPE      C28           -37.7396971234       11.9851607212       -8.1368452479  MEMB      165             0.0000000000
     20438       165  OYPE      H8R           -38.4985597743       12.6657282646       -8.5498375780  MEMB      165             0.0000000000
     20439       165  OYPE      H8S           -36.9420538804       12.5773827198       -7.6281804613  MEMB      165             0.0000000000
     20440       165  OYPE      C29           -38.4404948789       11.0660721668       -7.1814360267  MEMB      165             0.0000000000
     20441       165  OYPE      H9R           -39.5369616355       11.0976828547       -7.2625721633  MEMB      165             0.0000000000
     20442       165  OYPE      C210          -37.8589235517       10.2565733987       -6.2819030434  MEMB      165             0.0000000000
     20443       165  OYPE      H10R          -38.4812033760        9.6831553831       -5.5804623091  MEMB      165             0.0000000000
     20444       165  OYPE      C211          -36.3844996494       10.1005628024       -6.0508852546  MEMB      165             0.0000000000
     20445       165  OYPE      H11R          -35.9219551161        9.9171574910       -7.0428186785  MEMB      165             0.0000000000
     20446       165  OYPE      H11S          -36.2241822703        9.1689612797       -5.4700816046  MEMB      165             0.0000000000
     20447       165  OYPE      C212          -35.6360139891       11.2394977757       -5.3112908957  MEMB      165             0.0000000000
     20448       165  OYPE      H12R          -35.7964859918       12.2187924478       -5.8050808978  MEMB      165             0.0000000000
     20449       165  OYPE      H12S          -34.5420430619       11.0365533207       -5.3794172494  MEMB      165             0.0000000000
     20450       165  OYPE      C213          -35.9507342387       11.3692933020       -3.8111534378  MEMB      165             0.0000000000
     20451       165  OYPE      H13R          -35.2300611132       12.0957025613       -3.3701557107  MEMB      165             0.0000000000
     20452       165  OYPE      H13S          -35.7505323415       10.3942596529       -3.3116960858  MEMB      165             0.0000000000
     20453       165  OYPE      C214          -37.3632633908       11.8852394323       -3.5023839601  MEMB      165             0.0000000000
     20454       165  OYPE      H14R          -38.1153152194       11.0730703537       -3.6575993682  MEMB      165             0.0000000000
     20455       165  OYPE      H14S          -37.6536228810       12.7146554655       -4.1712534815  MEMB      165             0.0000000000
     20456       165  OYPE      C215          -37.4736053014       12.4100064641       -2.0891380088  MEMB      165             0.0000000000
     20457       165  OYPE      H15R          -38.5336452063       12.6997105555       -1.9218821168  MEMB      165             0.0000000000
     20458       165  OYPE      H15S          -36.8704089303       13.2852620020       -1.7862551716  MEMB      165             0.0000000000
     20459       165  OYPE      C216          -36.9843504038       11.3754839578       -1.1451186670  MEMB      165             0.0000000000
     20460       165  OYPE      H16R          -35.9705907401       11.3862861873       -0.7945853528  MEMB      165             0.0000000000
     20461       165  OYPE      H16S          -37.2623882303       10.3899158804       -1.3730249414  MEMB      165             0.0000000000
     20462       165  OYPE      H16T          -37.5050696742       11.5638183442       -0.2806013752  MEMB      165             0.0000000000
     20463       165  OYPE      C33           -37.7278937082        5.3580916700      -13.1350625419  MEMB      165             0.0000000000
     20464       165  OYPE      H3X           -37.6740107219        4.2555385021      -12.9592391272  MEMB      165             0.0000000000
     20465       165  OYPE      H3Y           -37.9064404050        5.8424620225      -12.1480276360  MEMB      165             0.0000000000
     20466       165  OYPE      C34           -36.4477191425        5.8060943167      -13.8032135882  MEMB      165             0.0000000000
     20467       165  OYPE      H4X           -36.2545014204        5.1102276764      -14.6559843320  MEMB      165             0.0000000000
     20468       165  OYPE      H4Y           -36.5860960132        6.8295220553      -14.2154517196  MEMB      165             0.0000000000
     20469       165  OYPE      C35           -35.2716661279        5.7003461431      -12.8480310489  MEMB      165             0.0000000000
     20470       165  OYPE      H5X           -34.3168384116        5.8364083083      -13.4076021540  MEMB      165             0.0000000000
     20471       165  OYPE      H5Y           -35.3296909967        4.6440824354      -12.5076693855  MEMB      165             0.0000000000
     20472       165  OYPE      C36           -35.3367387213        6.7007116505      -11.6785084608  MEMB      165             0.0000000000
     20473       165  OYPE      H6X           -34.3851852955        7.2576685483      -11.7301594257  MEMB      165             0.0000000000
     20474       165  OYPE      H6Y           -36.2018562419        7.3848081940      -11.8209425394  MEMB      165             0.0000000000
     20475       165  OYPE      C37           -35.2995026125        6.0867005456      -10.2686254928  MEMB      165             0.0000000000
     20476       165  OYPE      H7X           -35.8336092007        5.1206925087      -10.2815264488  MEMB      165             0.0000000000
     20477       165  OYPE      H7Y           -34.2098565391        5.9080584190      -10.0895104233  MEMB      165             0.0000000000
     20478       165  OYPE      C38           -35.9091825612        6.9073971506       -9.1083309742  MEMB      165             0.0000000000
     20479       165  OYPE      H8X           -36.7971562280        7.4778656983       -9.4746610376  MEMB      165             0.0000000000
     20480       165  OYPE      H8Y           -36.1940389262        6.3043760623       -8.2424577737  MEMB      165             0.0000000000
     20481       165  OYPE      C39           -34.8674806697        7.8294278660       -8.6445167829  MEMB      165             0.0000000000
     20482       165  OYPE      H9X           -34.8252281195        8.4890514716       -9.4572585994  MEMB      165             0.0000000000
     20483       165  OYPE      C310          -34.0472311819        7.9251174939       -7.5871341340  MEMB      165             0.0000000000
     20484       165  OYPE      H10X          -33.2954118272        8.7266958889       -7.5336532939  MEMB      165             0.0000000000
     20485       165  OYPE      C311          -34.0348467720        6.9408515788       -6.4753754265  MEMB      165             0.0000000000
     20486       165  OYPE      H11X          -35.0283828869        6.4492789461       -6.4375571620  MEMB      165             0.0000000000
     20487       165  OYPE      H11Y          -33.2814816926        6.1576712597       -6.7022008766  MEMB      165             0.0000000000
     20488       165  OYPE      C312          -33.7300326350        7.5964573111       -5.1216939145  MEMB      165             0.0000000000
     20489       165  OYPE      H12X          -34.4633425398        8.3866903466       -4.8713460593  MEMB      165             0.0000000000
     20490       165  OYPE      H12Y          -32.7401808304        8.1158712750       -5.1609943544  MEMB      165             0.0000000000
     20491       165  OYPE      C313          -33.7198799203        6.5750639832       -3.9748939641  MEMB      165             0.0000000000
     20492       165  OYPE      H13X          -32.9043599572        5.8479028235       -4.1924490841  MEMB      165             0.0000000000
     20493       165  OYPE      H13Y          -33.4332136663        7.1025496520       -3.0508535829  MEMB      165             0.0000000000
     20494       165  OYPE      C314          -35.0142555748        5.7816880798       -3.6686626616  MEMB      165             0.0000000000
     20495       165  OYPE      H14X          -34.8357721417        5.2414988535       -2.7090899865  MEMB      165             0.0000000000
     20496       165  OYPE      H14Y          -35.2247690861        5.0460253072       -4.4771854507  MEMB      165             0.0000000000
     20497       165  OYPE      C315          -36.3422016146        6.5198996393       -3.4469667427  MEMB      165             0.0000000000
     20498       165  OYPE      H15X          -36.6113107335        7.0372103947       -4.3903067973  MEMB      165             0.0000000000
     20499       165  OYPE      H15Y          -36.2071225592        7.2660478079       -2.6320917979  MEMB      165             0.0000000000
     20500       165  OYPE      C316          -37.4335700268        5.4812743493       -3.0810724728  MEMB      165             0.0000000000
     20501       165  OYPE      H16X          -37.2541034068        5.1381217842       -2.0309761505  MEMB      165             0.0000000000
     20502       165  OYPE      H16Y          -37.3830985815        4.6086216796       -3.7572513029  MEMB      165             0.0000000000
     20503       165  OYPE      C317          -38.8953107998        5.7995568236       -3.3851258943  MEMB      165             0.0000000000
     20504       165  OYPE      H17X          -39.5599325147        4.9429989480       -3.3682807790  MEMB      165             0.0000000000
     20505       165  OYPE      H17Y          -39.0562828107        6.4651674458       -4.2724149950  MEMB      165             0.0000000000
     20506       165  OYPE      C318          -39.4580495239        6.4488117451       -2.2804345427  MEMB      165             0.0000000000
     20507       165  OYPE      H18X          -38.9472854836        7.3324652881       -2.6663796902  MEMB      165             0.0000000000
     20508       165  OYPE      H18Y          -40.4173550279        6.9889838082       -2.2189006452  MEMB      165             0.0000000000
     20509       165  OYPE      H18Z          -39.1373547214        6.1258572474       -1.2584237078  MEMB      165             0.0000000000
     20510       166  PMPE      N              20.0424784257       29.2823501325      -21.5984315248  MEMB      166             0.0000000000
     20511       166  PMPE      HN1            21.0163336149       29.3363847269      -21.2177210078  MEMB      166             0.0000000000
     20512       166  PMPE      HN2            19.5539610360       28.4408027649      -21.2194357232  MEMB      166             0.0000000000
     20513       166  PMPE      HN3            20.0589610372       29.2447294417      -22.6417264770  MEMB      166             0.0000000000
     20514       166  PMPE      C12            19.3312748955       30.5247883322      -21.1266321390  MEMB      166             0.0000000000
     20515       166  PMPE      H12A           18.2702894630       30.4581060786      -21.4024690293  MEMB      166             0.0000000000
     20516       166  PMPE      H12B           19.6843567042       31.3249517147      -21.7601874762  MEMB      166             0.0000000000
     20517       166  PMPE      C11            19.6143925996       30.8152599635      -19.6378015283  MEMB      166             0.0000000000
     20518       166  PMPE      H11A           19.1307894194       29.9758174365      -19.0864408847  MEMB      166             0.0000000000
     20519       166  PMPE      H11B           19.1419792549       31.7573217786      -19.2684846633  MEMB      166             0.0000000000
     20520       166  PMPE      P              21.5982142445       30.8958845083      -17.9068129806  MEMB      166             0.0000000000
     20521       166  PMPE      O13            21.2042067036       32.1569296695      -17.2493817009  MEMB      166             0.0000000000
     20522       166  PMPE      O14            23.0175100167       30.5041496480      -17.9545819932  MEMB      166             0.0000000000
     20523       166  PMPE      O11            20.7314273451       29.7449594244      -17.3145189103  MEMB      166             0.0000000000
     20524       166  PMPE      O12            21.0219200227       30.8696805529      -19.4090040318  MEMB      166             0.0000000000
     20525       166  PMPE      C1             21.0927983775       28.4072171440      -17.5291001733  MEMB      166             0.0000000000
     20526       166  PMPE      HA             22.1025898447       28.2145446877      -17.9571372251  MEMB      166             0.0000000000
     20527       166  PMPE      HB             20.3024220171       27.9062319573      -18.1457837037  MEMB      166             0.0000000000
     20528       166  PMPE      C2             21.0732363928       27.6741233178      -16.2306453052  MEMB      166             0.0000000000
     20529       166  PMPE      HS             20.0710465289       27.8327682981      -15.8146416739  MEMB      166             0.0000000000
     20530       166  PMPE      O21            22.0462610147       28.0513933436      -15.2267053168  MEMB      166             0.0000000000
     20531       166  PMPE      C21            21.6840300330       29.1179011714      -14.4805477269  MEMB      166             0.0000000000
     20532       166  PMPE      O22            20.5546971126       29.5352268180      -14.3192040712  MEMB      166             0.0000000000
     20533       166  PMPE      C22            22.8888661272       29.6689457129      -13.7319003379  MEMB      166             0.0000000000
     20534       166  PMPE      H2R            23.0707601977       30.7087643765      -14.0637624469  MEMB      166             0.0000000000
     20535       166  PMPE      H2S            23.7809437639       29.0769148226      -13.9990752848  MEMB      166             0.0000000000
     20536       166  PMPE      C3             21.2364561446       26.2789953861      -16.7606591554  MEMB      166             0.0000000000
     20537       166  PMPE      HX             22.3424814618       25.9517482745      -16.9203041993  MEMB      166             0.0000000000
     20538       166  PMPE      HY             20.9392844985       25.8198080121      -17.7126392388  MEMB      166             0.0000000000
     20539       166  PMPE      O31            20.0244558963       25.6699771769      -16.2307464341  MEMB      166             0.0000000000
     20540       166  PMPE      C31            19.3850541124       25.9559895752      -14.8398010277  MEMB      166             0.0000000000
     20541       166  PMPE      O32            18.3547864261       26.5384908036      -14.9979699849  MEMB      166             0.0000000000
     20542       166  PMPE      C32            19.8716367313       25.3687270304      -13.2401113919  MEMB      166             0.0000000000
     20543       166  PMPE      H2X            20.8528922614       25.6932019597      -12.9668403467  MEMB      166             0.0000000000
     20544       166  PMPE      H2Y            20.0924853666       24.2714083540      -12.9334452938  MEMB      166             0.0000000000
     20545       166  PMPE      C23            22.6591811778       29.7066227765      -12.2178407239  MEMB      166             0.0000000000
     20546       166  PMPE      H3R            21.8622112586       29.0093719259      -11.8822476934  MEMB      166             0.0000000000
     20547       166  PMPE      H3S            22.3038005121       30.7202373121      -11.9263123448  MEMB      166             0.0000000000
     20548       166  PMPE      C24            23.9538755665       29.3677052185      -11.5166796152  MEMB      166             0.0000000000
     20549       166  PMPE      H4R            24.7728628597       30.0834940807      -11.7005611823  MEMB      166             0.0000000000
     20550       166  PMPE      H4S            24.2732659005       28.3184339538      -11.7677928174  MEMB      166             0.0000000000
     20551       166  PMPE      C25            23.7749259668       29.3657345180      -10.0529307054  MEMB      166             0.0000000000
     20552       166  PMPE      H5R            24.7718563586       29.0388454886       -9.7092137217  MEMB      166             0.0000000000
     20553       166  PMPE      H5S            22.9591350583       28.6031964075       -9.9693860958  MEMB      166             0.0000000000
     20554       166  PMPE      C26            23.4361251611       30.6412663576       -9.2911008549  MEMB      166             0.0000000000
     20555       166  PMPE      H6R            22.5773435577       31.0719205164       -9.8262856829  MEMB      166             0.0000000000
     20556       166  PMPE      H6S            24.3245900697       31.2976265715       -9.3333555249  MEMB      166             0.0000000000
     20557       166  PMPE      C27            22.9705536570       30.4533938359       -7.8431337052  MEMB      166             0.0000000000
     20558       166  PMPE      H7R            22.7018614545       29.4320541681       -7.7468598102  MEMB      166             0.0000000000
     20559       166  PMPE      H7S            22.0266379563       30.9522875759       -7.5694238682  MEMB      166             0.0000000000
     20560       166  PMPE      C28            23.9084283286       30.8749878348       -6.7664362771  MEMB      166             0.0000000000
     20561       166  PMPE      H8R            24.8903881321       30.3465262702       -6.7939962545  MEMB      166             0.0000000000
     20562       166  PMPE      H8S            23.4371076508       30.7588188919       -5.7543244198  MEMB      166             0.0000000000
     20563       166  PMPE      C29            24.1113437138       32.2614342964       -7.0658607968  MEMB      166             0.0000000000
     20564       166  PMPE      H9R            23.3077761638       32.9938164363       -7.2656739364  MEMB      166             0.0000000000
     20565       166  PMPE      C217           25.4941636033       32.6125268630       -7.5107396437  MEMB      166             0.0000000000
     20566       166  PMPE      H17R           25.4001846969       33.3770905987       -8.2404151339  MEMB      166             0.0000000000
     20567       166  PMPE      H17S           26.2444558410       31.8628412202       -7.6497402467  MEMB      166             0.0000000000
     20568       166  PMPE      C210           24.9896046496       32.7163877267       -6.0409337335  MEMB      166             0.0000000000
     20569       166  PMPE      H10R           24.5924540726       33.6889092139       -5.6921964837  MEMB      166             0.0000000000
     20570       166  PMPE      C211           25.7458571558       31.7255957702       -5.1311051936  MEMB      166             0.0000000000
     20571       166  PMPE      H11R           26.2772533605       32.2581598238       -4.4168914396  MEMB      166             0.0000000000
     20572       166  PMPE      H11S           26.5486185524       31.1565141102       -5.6148154711  MEMB      166             0.0000000000
     20573       166  PMPE      C212           25.1239438378       31.1630023997       -3.8791038000  MEMB      166             0.0000000000
     20574       166  PMPE      H12R           24.7940694706       30.2765071727       -4.2103653371  MEMB      166             0.0000000000
     20575       166  PMPE      H12S           24.1815811597       31.7565053185       -3.7879398621  MEMB      166             0.0000000000
     20576       166  PMPE      C213           26.0721619638       31.0980504388       -2.6086876898  MEMB      166             0.0000000000
     20577       166  PMPE      H13R           26.4986124367       32.0323328699       -2.1932946925  MEMB      166             0.0000000000
     20578       166  PMPE      H13S           27.0193118754       30.5844016042       -2.8069435462  MEMB      166             0.0000000000
     20579       166  PMPE      C214           25.3120183308       30.7521016997       -1.3519224760  MEMB      166             0.0000000000
     20580       166  PMPE      H14R           24.6442822502       29.9240133588       -1.5845997667  MEMB      166             0.0000000000
     20581       166  PMPE      H14S           24.7159116598       31.6194316272       -1.0229274832  MEMB      166             0.0000000000
     20582       166  PMPE      C215           26.2600874589       30.4286110487       -0.2454950720  MEMB      166             0.0000000000
     20583       166  PMPE      H15R           26.7988653197       31.3937932282        0.0467318161  MEMB      166             0.0000000000
     20584       166  PMPE      H15S           26.8884462515       29.5856646374       -0.5492888656  MEMB      166             0.0000000000
     20585       166  PMPE      C216           25.7632288005       29.7682899825        0.9499260569  MEMB      166             0.0000000000
     20586       166  PMPE      H16R           24.9736206589       29.0157577752        0.9707238049  MEMB      166             0.0000000000
     20587       166  PMPE      H16S           26.4959367334       29.7208686247        1.7474180560  MEMB      166             0.0000000000
     20588       166  PMPE      H16T           25.2410446840       30.6420414697        1.0796350878  MEMB      166             0.0000000000
     20589       166  PMPE      C33            19.3169106964       25.7360202080      -12.1007936441  MEMB      166             0.0000000000
     20590       166  PMPE      H3X            19.4296518363       25.3847867221      -11.1419307390  MEMB      166             0.0000000000
     20591       166  PMPE      H3Y            18.4366068409       25.1355102842      -12.2514169455  MEMB      166             0.0000000000
     20592       166  PMPE      C34            19.9974640458       27.0594110455      -11.8970105562  MEMB      166             0.0000000000
     20593       166  PMPE      H4X            19.8178973171       27.4720332525      -12.8999344666  MEMB      166             0.0000000000
     20594       166  PMPE      H4Y            21.1135397177       27.1110789943      -11.6799467950  MEMB      166             0.0000000000
     20595       166  PMPE      C35            19.1943002939       27.5335163475      -10.8453292462  MEMB      166             0.0000000000
     20596       166  PMPE      H5X            18.2002435970       27.1331023784      -11.1985399030  MEMB      166             0.0000000000
     20597       166  PMPE      H5Y            19.2551557764       28.6011979506      -10.9693421455  MEMB      166             0.0000000000
     20598       166  PMPE      C36            19.6999738648       27.1054460676       -9.4774854430  MEMB      166             0.0000000000
     20599       166  PMPE      H6X            20.7751659546       27.0316252997       -9.3789713901  MEMB      166             0.0000000000
     20600       166  PMPE      H6Y            19.2466847127       26.0833959470       -9.2825351559  MEMB      166             0.0000000000
     20601       166  PMPE      C37            19.4028934394       28.1679908367       -8.3811586563  MEMB      166             0.0000000000
     20602       166  PMPE      H7X            18.5813830935       27.6621108622       -8.7141798670  MEMB      166             0.0000000000
     20603       166  PMPE      H7Y            19.1557071101       29.1771833403       -8.6726348749  MEMB      166             0.0000000000
     20604       166  PMPE      C38            19.2799958005       28.0998682269       -6.8301190939  MEMB      166             0.0000000000
     20605       166  PMPE      H8X            19.2884363081       27.2072129917       -6.2813464250  MEMB      166             0.0000000000
     20606       166  PMPE      H8Y            18.3549031385       28.4129456857       -6.3348062804  MEMB      166             0.0000000000
     20607       166  PMPE      C39            20.5123891132       28.7209147637       -6.3749471974  MEMB      166             0.0000000000
     20608       166  PMPE      H9X            20.4083876503       29.6638827826       -6.9438370589  MEMB      166             0.0000000000
     20609       166  PMPE      H9Y            21.3119377538       28.0894622924       -6.8289939136  MEMB      166             0.0000000000
     20610       166  PMPE      C310           20.5520191479       28.9022144578       -4.8611222517  MEMB      166             0.0000000000
     20611       166  PMPE      H10X           19.6302873554       29.4533458333       -4.5890658322  MEMB      166             0.0000000000
     20612       166  PMPE      H10Y           21.4246744436       29.5524302177       -4.6685317667  MEMB      166             0.0000000000
     20613       166  PMPE      C311           20.5333411966       27.6012123441       -4.0272149318  MEMB      166             0.0000000000
     20614       166  PMPE      H11X           21.3239384072       26.9055605849       -4.3782075523  MEMB      166             0.0000000000
     20615       166  PMPE      H11Y           19.6204416924       27.0821917966       -4.3138402924  MEMB      166             0.0000000000
     20616       166  PMPE      C312           20.4406036872       27.6840797179       -2.4776914965  MEMB      166             0.0000000000
     20617       166  PMPE      H12X           20.6037377146       26.6436428488       -2.0763028445  MEMB      166             0.0000000000
     20618       166  PMPE      H12Y           19.5041906056       28.1121944654       -2.1064383742  MEMB      166             0.0000000000
     20619       166  PMPE      C313           21.4100957174       28.6376268998       -1.8189461751  MEMB      166             0.0000000000
     20620       166  PMPE      H13X           21.6990714950       29.5580829294       -2.3544620376  MEMB      166             0.0000000000
     20621       166  PMPE      H13Y           22.1363250233       28.0935159149       -2.2659697262  MEMB      166             0.0000000000
     20622       166  PMPE      C314           21.4423595947       28.7122944327       -0.2708849842  MEMB      166             0.0000000000
     20623       166  PMPE      H14X           20.3936432294       28.9787142793       -0.0535921507  MEMB      166             0.0000000000
     20624       166  PMPE      H14Y           22.1716287910       29.4991211840        0.0303587027  MEMB      166             0.0000000000
     20625       166  PMPE      C315           21.6502303185       27.5790204265        0.7414241014  MEMB      166             0.0000000000
     20626       166  PMPE      H15X           22.5394314209       27.0447904880        0.8160292307  MEMB      166             0.0000000000
     20627       166  PMPE      H15Y           21.3525069949       26.5605522509        0.3888900787  MEMB      166             0.0000000000
     20628       166  PMPE      C316           22.1787795268       28.0907085043        2.1284624625  MEMB      166             0.0000000000
     20629       166  PMPE      H16X           21.3709846253       27.8724564677        2.8473772590  MEMB      166             0.0000000000
     20630       166  PMPE      H16Y           22.7254340349       29.0205758242        2.2344776285  MEMB      166             0.0000000000
     20631       166  PMPE      H16Z           23.0845424782       27.5268814146        2.4948024499  MEMB      166             0.0000000000
     20632       167  PMPE      N              24.1684411726       24.9488500172      -20.1746173633  MEMB      167             0.0000000000
     20633       167  PMPE      HN1            23.4003186542       24.2381827564      -20.2913677419  MEMB      167             0.0000000000
     20634       167  PMPE      HN2            24.2532067296       25.1684626914      -19.1566138477  MEMB      167             0.0000000000
     20635       167  PMPE      HN3            23.9356104931       25.8322901723      -20.6805925614  MEMB      167             0.0000000000
     20636       167  PMPE      C12            25.4479731252       24.3795351533      -20.7703824709  MEMB      167             0.0000000000
     20637       167  PMPE      H12A           25.3408862769       24.4612916830      -21.8726635604  MEMB      167             0.0000000000
     20638       167  PMPE      H12B           25.5538979214       23.3141360226      -20.4862411911  MEMB      167             0.0000000000
     20639       167  PMPE      C11            26.7577851303       25.1054828269      -20.4001724481  MEMB      167             0.0000000000
     20640       167  PMPE      H11A           26.6688213635       26.1989187313      -20.4453947324  MEMB      167             0.0000000000
     20641       167  PMPE      H11B           27.4496520721       24.7862353893      -21.2202084056  MEMB      167             0.0000000000
     20642       167  PMPE      P              28.1067453860       25.6326924992      -18.1763252122  MEMB      167             0.0000000000
     20643       167  PMPE      O13            28.9789270657       26.5149735709      -18.9834788605  MEMB      167             0.0000000000
     20644       167  PMPE      O14            28.7125249354       24.8030210360      -17.1241343269  MEMB      167             0.0000000000
     20645       167  PMPE      O11            26.9691146753       26.5746628338      -17.6195468895  MEMB      167             0.0000000000
     20646       167  PMPE      O12            27.2578436897       24.6766471128      -19.1420461598  MEMB      167             0.0000000000
     20647       167  PMPE      C1             25.7110607679       26.1259253237      -17.1624030469  MEMB      167             0.0000000000
     20648       167  PMPE      HA             25.3274768116       25.2704360841      -17.7456958385  MEMB      167             0.0000000000
     20649       167  PMPE      HB             24.9678270517       26.9527670592      -17.2711176895  MEMB      167             0.0000000000
     20650       167  PMPE      C2             25.7728138238       25.7185123661      -15.6865973357  MEMB      167             0.0000000000
     20651       167  PMPE      HS             24.7596141899       25.9242719943      -15.2625481594  MEMB      167             0.0000000000
     20652       167  PMPE      O21            26.6744444755       26.4588391492      -14.8786647782  MEMB      167             0.0000000000
     20653       167  PMPE      C21            26.4246817664       27.6595599396      -14.7694001901  MEMB      167             0.0000000000
     20654       167  PMPE      O22            25.4981526893       28.3016627758      -15.2508731221  MEMB      167             0.0000000000
     20655       167  PMPE      C22            27.5515132955       28.2696832703      -13.9812393005  MEMB      167             0.0000000000
     20656       167  PMPE      H2R            27.2763591626       29.2486170158      -14.4219218296  MEMB      167             0.0000000000
     20657       167  PMPE      H2S            28.5504480362       27.9319755129      -14.3515099699  MEMB      167             0.0000000000
     20658       167  PMPE      C3             26.1963439320       24.2642314607      -15.4438998493  MEMB      167             0.0000000000
     20659       167  PMPE      HX             27.1061290925       23.8578147819      -15.8603445719  MEMB      167             0.0000000000
     20660       167  PMPE      HY             25.3837053263       23.5675146672      -15.8519627981  MEMB      167             0.0000000000
     20661       167  PMPE      O31            26.3497251794       24.3179081918      -14.0136552814  MEMB      167             0.0000000000
     20662       167  PMPE      C31            27.4025385187       24.1645207017      -13.1920106014  MEMB      167             0.0000000000
     20663       167  PMPE      O32            28.5225870993       23.9755255589      -13.5372017261  MEMB      167             0.0000000000
     20664       167  PMPE      C32            27.0745819945       24.1113943865      -11.6123390571  MEMB      167             0.0000000000
     20665       167  PMPE      H2X            26.4833370045       23.3186660219      -11.3761972685  MEMB      167             0.0000000000
     20666       167  PMPE      H2Y            26.2385339529       24.7971610482      -11.6073867826  MEMB      167             0.0000000000
     20667       167  PMPE      C23            27.5984636067       28.3909242859      -12.4211222447  MEMB      167             0.0000000000
     20668       167  PMPE      H3R            26.6250624524       28.6841410886      -11.9900426701  MEMB      167             0.0000000000
     20669       167  PMPE      H3S            28.3259840589       29.1854394422      -12.1212027159  MEMB      167             0.0000000000
     20670       167  PMPE      C24            28.1429172975       27.1153697798      -11.7834413600  MEMB      167             0.0000000000
     20671       167  PMPE      H4R            28.8861054989       26.6539384697      -12.4706707356  MEMB      167             0.0000000000
     20672       167  PMPE      H4S            27.2990551811       26.4244674537      -11.7435049762  MEMB      167             0.0000000000
     20673       167  PMPE      C25            28.7417989085       27.2370518397      -10.3723657800  MEMB      167             0.0000000000
     20674       167  PMPE      H5R            29.6574365999       27.8558072682      -10.3980821120  MEMB      167             0.0000000000
     20675       167  PMPE      H5S            29.0810752541       26.2197890162      -10.1070478391  MEMB      167             0.0000000000
     20676       167  PMPE      C26            27.7466466911       27.7234912389       -9.3207362739  MEMB      167             0.0000000000
     20677       167  PMPE      H6R            27.3895379226       28.7358288895       -9.5987877419  MEMB      167             0.0000000000
     20678       167  PMPE      H6S            28.1538367884       27.8132060448       -8.2832742040  MEMB      167             0.0000000000
     20679       167  PMPE      C27            26.5295625257       26.8209692260       -9.2351198464  MEMB      167             0.0000000000
     20680       167  PMPE      H7R            26.8011384414       25.7613230465       -9.1250155992  MEMB      167             0.0000000000
     20681       167  PMPE      H7S            25.9661660403       26.8309851355      -10.1823556036  MEMB      167             0.0000000000
     20682       167  PMPE      C28            25.7376216757       27.2966969097       -8.0351610884  MEMB      167             0.0000000000
     20683       167  PMPE      H8R            25.4369785284       28.3267154004       -8.2008259429  MEMB      167             0.0000000000
     20684       167  PMPE      H8S            26.3509226410       27.3526694527       -7.1232481446  MEMB      167             0.0000000000
     20685       167  PMPE      C29            24.5588203198       26.4493001068       -7.7182085746  MEMB      167             0.0000000000
     20686       167  PMPE      H9R            24.7774236073       25.4199406358       -7.7102379593  MEMB      167             0.0000000000
     20687       167  PMPE      C217           23.2781196429       27.0947618002       -8.1106691078  MEMB      167             0.0000000000
     20688       167  PMPE      H17R           22.4951857955       26.6535832135       -8.6545273546  MEMB      167             0.0000000000
     20689       167  PMPE      H17S           23.5421774855       28.0113941865       -8.3566929829  MEMB      167             0.0000000000
     20690       167  PMPE      C210           23.5915113398       26.9076454509       -6.6661991408  MEMB      167             0.0000000000
     20691       167  PMPE      H10R           22.7186781810       26.4735810352       -6.2536600173  MEMB      167             0.0000000000
     20692       167  PMPE      C211           23.8357144047       28.1391429011       -5.9451952255  MEMB      167             0.0000000000
     20693       167  PMPE      H11R           22.9536675696       28.7902173935       -6.0285025336  MEMB      167             0.0000000000
     20694       167  PMPE      H11S           24.7574533514       28.5875115944       -6.3005269269  MEMB      167             0.0000000000
     20695       167  PMPE      C212           23.8644825553       27.8963086590       -4.4892973963  MEMB      167             0.0000000000
     20696       167  PMPE      H12R           22.8846756817       27.7779550446       -4.0689003605  MEMB      167             0.0000000000
     20697       167  PMPE      H12S           24.0892816544       28.7907822024       -3.9922669850  MEMB      167             0.0000000000
     20698       167  PMPE      C213           24.9266594383       26.9422020596       -4.0692932964  MEMB      167             0.0000000000
     20699       167  PMPE      H13R           25.8899068657       27.1696632916       -4.5034303795  MEMB      167             0.0000000000
     20700       167  PMPE      H13S           24.7687173001       25.9300730806       -4.3023957242  MEMB      167             0.0000000000
     20701       167  PMPE      C214           25.0917021262       26.6949132279       -2.6399721201  MEMB      167             0.0000000000
     20702       167  PMPE      H14R           25.8656040050       27.2989264357       -2.1606201373  MEMB      167             0.0000000000
     20703       167  PMPE      H14S           25.3438909872       25.6639915247       -2.5201717688  MEMB      167             0.0000000000
     20704       167  PMPE      C215           23.9086451974       26.9521244445       -1.9285416146  MEMB      167             0.0000000000
     20705       167  PMPE      H15R           22.9406567582       26.3987067404       -2.1758839491  MEMB      167             0.0000000000
     20706       167  PMPE      H15S           23.8826161671       28.0679158772       -2.1186889004  MEMB      167             0.0000000000
     20707       167  PMPE      C216           24.2065088879       26.8165768183       -0.5309884667  MEMB      167             0.0000000000
     20708       167  PMPE      H16R           23.7372124203       25.8991407031       -0.0978065007  MEMB      167             0.0000000000
     20709       167  PMPE      H16S           24.9957295156       27.2666480948        0.0444086267  MEMB      167             0.0000000000
     20710       167  PMPE      H16T           23.6445858419       27.7411914244       -0.3302256261  MEMB      167             0.0000000000
     20711       167  PMPE      C33            27.2510024563       22.8174814259      -10.6075363386  MEMB      167             0.0000000000
     20712       167  PMPE      H3X            27.9662970346       23.5034375150      -10.2336601148  MEMB      167             0.0000000000
     20713       167  PMPE      H3Y            27.6474254803       21.8430998494      -10.9648170120  MEMB      167             0.0000000000
     20714       167  PMPE      C34            26.3999031087       22.5119458355       -9.3124367765  MEMB      167             0.0000000000
     20715       167  PMPE      H4X            25.5615001807       21.8799357702       -9.2876191119  MEMB      167             0.0000000000
     20716       167  PMPE      H4Y            26.2876671803       23.4570422258       -8.7743633586  MEMB      167             0.0000000000
     20717       167  PMPE      C35            26.8819580500       21.4484994962       -8.3119948329  MEMB      167             0.0000000000
     20718       167  PMPE      H5X            27.1767762522       20.5199347126       -8.8991345403  MEMB      167             0.0000000000
     20719       167  PMPE      H5Y            26.4646761793       21.3675218956       -7.3081857344  MEMB      167             0.0000000000
     20720       167  PMPE      C36            28.1676138310       21.7153241887       -7.6766565532  MEMB      167             0.0000000000
     20721       167  PMPE      H6X            28.1263927304       22.2002506393       -8.6294479931  MEMB      167             0.0000000000
     20722       167  PMPE      H6Y            28.5677121254       20.7827270547       -7.4218856140  MEMB      167             0.0000000000
     20723       167  PMPE      C37            28.9246579940       22.6569117388       -6.6671462623  MEMB      167             0.0000000000
     20724       167  PMPE      H7X            28.8905648326       22.8949323319       -5.7506684502  MEMB      167             0.0000000000
     20725       167  PMPE      H7Y            27.9216345985       22.8315044494       -7.0872836715  MEMB      167             0.0000000000
     20726       167  PMPE      C38            30.0719832998       23.8164842818       -6.1786429633  MEMB      167             0.0000000000
     20727       167  PMPE      H8X            30.6145442183       24.5268030341       -6.7715737153  MEMB      167             0.0000000000
     20728       167  PMPE      H8Y            30.8407274282       23.1093218848       -5.9530568149  MEMB      167             0.0000000000
     20729       167  PMPE      C39            29.8145859291       25.1016379459       -5.1964592180  MEMB      167             0.0000000000
     20730       167  PMPE      H9X            29.4291852047       24.7827884417       -4.2596590263  MEMB      167             0.0000000000
     20731       167  PMPE      H9Y            29.0348332114       25.9050861817       -5.3786817304  MEMB      167             0.0000000000
     20732       167  PMPE      C310           30.7943939941       26.2620719917       -5.2521892542  MEMB      167             0.0000000000
     20733       167  PMPE      H10X           30.8677508777       26.6560041141       -6.2995844661  MEMB      167             0.0000000000
     20734       167  PMPE      H10Y           31.7539596433       25.8097602085       -4.9591497616  MEMB      167             0.0000000000
     20735       167  PMPE      C311           30.2427750430       27.4480151504       -4.4175748435  MEMB      167             0.0000000000
     20736       167  PMPE      H11X           29.5142634874       28.0365021879       -5.0119690227  MEMB      167             0.0000000000
     20737       167  PMPE      H11Y           31.1341909028       28.0792518385       -4.2228616608  MEMB      167             0.0000000000
     20738       167  PMPE      C312           29.3639603974       27.0672714448       -3.2015422326  MEMB      167             0.0000000000
     20739       167  PMPE      H12X           28.5219018712       26.3777070080       -3.3901063063  MEMB      167             0.0000000000
     20740       167  PMPE      H12Y           28.9767228268       27.9649991331       -2.6645230036  MEMB      167             0.0000000000
     20741       167  PMPE      C313           30.1776801253       26.3288645000       -2.2555523697  MEMB      167             0.0000000000
     20742       167  PMPE      H13X           30.7114901682       25.4815417562       -2.7252433448  MEMB      167             0.0000000000
     20743       167  PMPE      H13Y           29.6156359035       25.9307724278       -1.3660529809  MEMB      167             0.0000000000
     20744       167  PMPE      C314           31.0545972663       27.3905577107       -1.7919714234  MEMB      167             0.0000000000
     20745       167  PMPE      H14X           31.6056357840       28.1277742933       -2.4140281989  MEMB      167             0.0000000000
     20746       167  PMPE      H14Y           32.0759641822       27.0737924007       -1.7977917827  MEMB      167             0.0000000000
     20747       167  PMPE      C315           30.5918576478       27.5480962581       -0.3972105314  MEMB      167             0.0000000000
     20748       167  PMPE      H15X           30.5780780457       26.8570732422        0.4614816266  MEMB      167             0.0000000000
     20749       167  PMPE      H15Y           29.6405643312       28.0586665577       -0.2236607241  MEMB      167             0.0000000000
     20750       167  PMPE      C316           31.7091112714       28.1617000659       -0.0073833736  MEMB      167             0.0000000000
     20751       167  PMPE      H16X           32.4338826857       28.6050537611       -0.7655927099  MEMB      167             0.0000000000
     20752       167  PMPE      H16Y           32.4149542823       27.5577950913        0.5822741916  MEMB      167             0.0000000000
     20753       167  PMPE      H16Z           31.2223229284       28.9422892681        0.6238344237  MEMB      167             0.0000000000
     20754       168  PMPE      N             -22.2764802197       31.3772858391      -20.3588932177  MEMB      168             0.0000000000
     20755       168  PMPE      HN1           -22.6086315718       32.3655802055      -20.3208398054  MEMB      168             0.0000000000
     20756       168  PMPE      HN2           -22.8952654489       30.8874156433      -21.0427835735  MEMB      168             0.0000000000
     20757       168  PMPE      HN3           -22.4425909698       30.9814681537      -19.4104582874  MEMB      168             0.0000000000
     20758       168  PMPE      C12           -20.8443478480       31.2729006665      -20.8107476944  MEMB      168             0.0000000000
     20759       168  PMPE      H12A          -20.8936169776       31.2295436372      -21.9156846469  MEMB      168             0.0000000000
     20760       168  PMPE      H12B          -20.4442018555       30.3123214530      -20.4254028722  MEMB      168             0.0000000000
     20761       168  PMPE      C11           -19.9726185166       32.4034385539      -20.2522320030  MEMB      168             0.0000000000
     20762       168  PMPE      H11A          -20.4527118976       33.3984292449      -20.3773964157  MEMB      168             0.0000000000
     20763       168  PMPE      H11B          -18.9947134667       32.4594101105      -20.7895717677  MEMB      168             0.0000000000
     20764       168  PMPE      P             -18.3702517772       32.0371519009      -18.1528210795  MEMB      168             0.0000000000
     20765       168  PMPE      O13           -18.1337602213       33.2396728241      -17.3497946833  MEMB      168             0.0000000000
     20766       168  PMPE      O14           -17.3791115010       31.5253868114      -19.1081219106  MEMB      168             0.0000000000
     20767       168  PMPE      O11           -18.7441799856       30.8732981801      -17.1999689908  MEMB      168             0.0000000000
     20768       168  PMPE      O12           -19.7969350278       32.1538164235      -18.8780934874  MEMB      168             0.0000000000
     20769       168  PMPE      C1            -19.8895908052       30.9705464878      -16.3721153538  MEMB      168             0.0000000000
     20770       168  PMPE      HA            -20.6749019454       30.3133371493      -16.7967117290  MEMB      168             0.0000000000
     20771       168  PMPE      HB            -20.3313086007       31.9979796646      -16.3265134947  MEMB      168             0.0000000000
     20772       168  PMPE      C2            -19.5403284119       30.5787286802      -14.9216726359  MEMB      168             0.0000000000
     20773       168  PMPE      HS            -20.1884895322       31.2084917622      -14.2705153965  MEMB      168             0.0000000000
     20774       168  PMPE      O21           -18.1725460398       30.7387482848      -14.6069831985  MEMB      168             0.0000000000
     20775       168  PMPE      C21           -17.9229124031       31.6795853737      -13.7891754771  MEMB      168             0.0000000000
     20776       168  PMPE      O22           -18.6618494873       32.5334520589      -13.3282114286  MEMB      168             0.0000000000
     20777       168  PMPE      C22           -16.5625635155       31.4745479338      -13.3534338334  MEMB      168             0.0000000000
     20778       168  PMPE      H2R           -15.9709839500       31.1227537936      -14.2633448010  MEMB      168             0.0000000000
     20779       168  PMPE      H2S           -16.3484505846       30.6950385469      -12.6018587630  MEMB      168             0.0000000000
     20780       168  PMPE      C3            -19.8256663809       29.0787110527      -14.6939637556  MEMB      168             0.0000000000
     20781       168  PMPE      HX            -19.0431315606       28.5038255847      -15.2220463985  MEMB      168             0.0000000000
     20782       168  PMPE      HY            -20.8155676873       28.8665283154      -15.1458088104  MEMB      168             0.0000000000
     20783       168  PMPE      O31           -19.7492390997       28.6649879176      -13.3246237037  MEMB      168             0.0000000000
     20784       168  PMPE      C31           -20.5856066069       29.3291860741      -12.5815703031  MEMB      168             0.0000000000
     20785       168  PMPE      O32           -21.4846137685       30.0415885271      -12.9696611983  MEMB      168             0.0000000000
     20786       168  PMPE      C32           -20.1674541002       29.1384846782      -11.1769047758  MEMB      168             0.0000000000
     20787       168  PMPE      H2X           -20.3011587615       28.0566375899      -10.9175224994  MEMB      168             0.0000000000
     20788       168  PMPE      H2Y           -20.7563309253       29.8069521939      -10.4946505133  MEMB      168             0.0000000000
     20789       168  PMPE      C23           -16.2868576552       32.9141331705      -12.8507610767  MEMB      168             0.0000000000
     20790       168  PMPE      H3R           -16.3125819063       33.7188675876      -13.6096361676  MEMB      168             0.0000000000
     20791       168  PMPE      H3S           -15.3706596274       32.3331173570      -12.9666696908  MEMB      168             0.0000000000
     20792       168  PMPE      C24           -16.4011259380       33.5199470927      -11.3706961469  MEMB      168             0.0000000000
     20793       168  PMPE      H4R           -16.4232514637       32.5610947415      -10.8322210872  MEMB      168             0.0000000000
     20794       168  PMPE      H4S           -17.3419399381       34.0997225277      -11.4132574414  MEMB      168             0.0000000000
     20795       168  PMPE      C25           -15.3801334700       34.5359475169      -10.6320431142  MEMB      168             0.0000000000
     20796       168  PMPE      H5R           -15.1206530346       35.5288461781      -11.0699678372  MEMB      168             0.0000000000
     20797       168  PMPE      H5S           -14.4148060750       34.1545810235      -10.4938041333  MEMB      168             0.0000000000
     20798       168  PMPE      C26           -15.1197461402       34.6571227661       -9.1777468007  MEMB      168             0.0000000000
     20799       168  PMPE      H6R           -14.0583874199       34.9517898571       -8.8652359484  MEMB      168             0.0000000000
     20800       168  PMPE      H6S           -15.3747769853       33.7454348650       -8.6790206574  MEMB      168             0.0000000000
     20801       168  PMPE      C27           -16.0943487963       35.6473766319       -9.0585451025  MEMB      168             0.0000000000
     20802       168  PMPE      H7R           -16.8639671368       35.7135270266       -9.8851403565  MEMB      168             0.0000000000
     20803       168  PMPE      H7S           -15.3994404990       36.4935260148       -9.1737150311  MEMB      168             0.0000000000
     20804       168  PMPE      C28           -16.8670640183       35.2182555478       -7.8908314583  MEMB      168             0.0000000000
     20805       168  PMPE      H8R           -17.5986303470       35.9906078459       -8.0014014087  MEMB      168             0.0000000000
     20806       168  PMPE      H8S           -16.2670591811       35.1911014909       -6.9550946934  MEMB      168             0.0000000000
     20807       168  PMPE      C29           -17.8663531400       34.1522907080       -8.1267767501  MEMB      168             0.0000000000
     20808       168  PMPE      H9R           -17.4787791954       33.1745959075       -8.3912784198  MEMB      168             0.0000000000
     20809       168  PMPE      C217          -19.0827651374       34.6608941474       -8.9146939703  MEMB      168             0.0000000000
     20810       168  PMPE      H17R          -19.4919358448       33.9517456391       -9.6044531373  MEMB      168             0.0000000000
     20811       168  PMPE      H17S          -19.2395983909       35.7343239611       -8.9820451509  MEMB      168             0.0000000000
     20812       168  PMPE      C210          -19.2139072019       34.2332905207       -7.4590726236  MEMB      168             0.0000000000
     20813       168  PMPE      H10R          -19.7510481090       33.2799147203       -7.3587661759  MEMB      168             0.0000000000
     20814       168  PMPE      C211          -19.7169702246       35.4233169753       -6.6300628052  MEMB      168             0.0000000000
     20815       168  PMPE      H11R          -20.4947292961       35.9863051415       -7.1821718925  MEMB      168             0.0000000000
     20816       168  PMPE      H11S          -18.9065000251       36.1307591288       -6.3561009616  MEMB      168             0.0000000000
     20817       168  PMPE      C212          -20.2662338448       34.8505827131       -5.3408116655  MEMB      168             0.0000000000
     20818       168  PMPE      H12R          -21.1480001959       34.1997206290       -5.5348412659  MEMB      168             0.0000000000
     20819       168  PMPE      H12S          -20.5899097058       35.6786781683       -4.6617482439  MEMB      168             0.0000000000
     20820       168  PMPE      C213          -19.1029354758       34.0566186227       -4.7537464418  MEMB      168             0.0000000000
     20821       168  PMPE      H13R          -18.2482341592       34.7857613301       -4.6348585028  MEMB      168             0.0000000000
     20822       168  PMPE      H13S          -18.7459761642       33.1982123611       -5.3333206606  MEMB      168             0.0000000000
     20823       168  PMPE      C214          -19.3598359639       33.5500732795       -3.3848530084  MEMB      168             0.0000000000
     20824       168  PMPE      H14R          -20.0038840752       34.3938283304       -3.0891240075  MEMB      168             0.0000000000
     20825       168  PMPE      H14S          -18.3105039682       33.5197064120       -3.0132675988  MEMB      168             0.0000000000
     20826       168  PMPE      C215          -20.0611592176       32.2550659497       -3.0201761166  MEMB      168             0.0000000000
     20827       168  PMPE      H15R          -19.6024192239       31.5431567592       -3.7272912820  MEMB      168             0.0000000000
     20828       168  PMPE      H15S          -21.1415677026       32.3866800906       -3.2130951512  MEMB      168             0.0000000000
     20829       168  PMPE      C216          -19.8771812825       31.6794859345       -1.5969858987  MEMB      168             0.0000000000
     20830       168  PMPE      H16R          -20.2716167806       32.3078912759       -0.7837056729  MEMB      168             0.0000000000
     20831       168  PMPE      H16S          -20.3972742996       30.7034468562       -1.5121176436  MEMB      168             0.0000000000
     20832       168  PMPE      H16T          -18.8049398602       31.5219735064       -1.3821452278  MEMB      168             0.0000000000
     20833       168  PMPE      C33           -18.7664640660       29.3611740645      -10.9581315480  MEMB      168             0.0000000000
     20834       168  PMPE      H3X           -18.4105309074       30.2608875006      -11.4961399029  MEMB      168             0.0000000000
     20835       168  PMPE      H3Y           -18.2022595532       28.4400838387      -11.2382115513  MEMB      168             0.0000000000
     20836       168  PMPE      C34           -18.6882371718       29.5352442853       -9.5187146988  MEMB      168             0.0000000000
     20837       168  PMPE      H4X           -19.1218938234       28.7242370255       -8.8750590028  MEMB      168             0.0000000000
     20838       168  PMPE      H4Y           -19.1425429660       30.5121823211       -9.1650665273  MEMB      168             0.0000000000
     20839       168  PMPE      C35           -17.2613985399       29.4953619596       -9.3393234698  MEMB      168             0.0000000000
     20840       168  PMPE      H5X           -16.7333865165       30.2799080979       -9.9706817832  MEMB      168             0.0000000000
     20841       168  PMPE      H5Y           -16.6813042645       28.5407931862       -9.4162797033  MEMB      168             0.0000000000
     20842       168  PMPE      C36           -17.4837016614       29.8820459701       -7.9262646872  MEMB      168             0.0000000000
     20843       168  PMPE      H6X           -17.6752125099       30.9867119155       -7.9560700939  MEMB      168             0.0000000000
     20844       168  PMPE      H6Y           -16.5139661146       29.8616764660       -8.0544115574  MEMB      168             0.0000000000
     20845       168  PMPE      C37           -17.1899484950       28.9260560190       -6.7180382425  MEMB      168             0.0000000000
     20846       168  PMPE      H7X           -16.7490102913       27.9695868815       -7.0639940919  MEMB      168             0.0000000000
     20847       168  PMPE      H7Y           -18.2051086207       28.9333165424       -6.3194908761  MEMB      168             0.0000000000
     20848       168  PMPE      C38           -16.3159363820       29.2625728739       -5.4887733009  MEMB      168             0.0000000000
     20849       168  PMPE      H8X           -16.9661816700       29.7950335701       -4.7653620559  MEMB      168             0.0000000000
     20850       168  PMPE      H8Y           -15.4145652621       29.7886753831       -5.8136592127  MEMB      168             0.0000000000
     20851       168  PMPE      C39           -15.5455708429       28.2824476076       -4.6008683058  MEMB      168             0.0000000000
     20852       168  PMPE      H9X           -14.7863598961       27.7944072109       -5.2504326165  MEMB      168             0.0000000000
     20853       168  PMPE      H9Y           -16.3534027782       27.6334488775       -4.2319770546  MEMB      168             0.0000000000
     20854       168  PMPE      C310          -14.7774079458       28.7834581209       -3.3461675828  MEMB      168             0.0000000000
     20855       168  PMPE      H10X          -14.0892241185       29.6222377608       -3.6061976974  MEMB      168             0.0000000000
     20856       168  PMPE      H10Y          -14.1000012210       27.9916687940       -2.9561948516  MEMB      168             0.0000000000
     20857       168  PMPE      C311          -15.7300150526       29.0799390009       -2.1712640842  MEMB      168             0.0000000000
     20858       168  PMPE      H11X          -16.4397043978       28.2646817980       -1.9788442147  MEMB      168             0.0000000000
     20859       168  PMPE      H11Y          -16.4541047424       29.8136062091       -2.5734410889  MEMB      168             0.0000000000
     20860       168  PMPE      C312          -14.9010905613       29.5019306899       -0.9058640280  MEMB      168             0.0000000000
     20861       168  PMPE      H12X          -14.0870473911       30.1913023340       -1.2355092749  MEMB      168             0.0000000000
     20862       168  PMPE      H12Y          -14.3944186204       28.5896436251       -0.5313165211  MEMB      168             0.0000000000
     20863       168  PMPE      C313          -15.6275129484       30.1604032865        0.3057563982  MEMB      168             0.0000000000
     20864       168  PMPE      H13X          -14.9564056500       30.2061405958        1.1939692031  MEMB      168             0.0000000000
     20865       168  PMPE      H13Y          -16.4768297293       29.4880118618        0.5141556077  MEMB      168             0.0000000000
     20866       168  PMPE      C314          -16.1388448432       31.6009347527        0.1295857995  MEMB      168             0.0000000000
     20867       168  PMPE      H14X          -16.9020266704       31.5252049458       -0.6758402405  MEMB      168             0.0000000000
     20868       168  PMPE      H14Y          -15.2485064227       32.2431244118       -0.0523942762  MEMB      168             0.0000000000
     20869       168  PMPE      C315          -16.9182291357       32.4729767793        1.0916414604  MEMB      168             0.0000000000
     20870       168  PMPE      H15X          -17.9605459415       32.0618566018        1.1542781496  MEMB      168             0.0000000000
     20871       168  PMPE      H15Y          -16.9963054763       33.4167083834        0.5811292470  MEMB      168             0.0000000000
     20872       168  PMPE      C316          -16.2363905269       32.8106794126        2.4117957079  MEMB      168             0.0000000000
     20873       168  PMPE      H16X          -17.0557723033       33.1054784232        3.1128030666  MEMB      168             0.0000000000
     20874       168  PMPE      H16Y          -15.4237259802       33.5347938693        2.3614572329  MEMB      168             0.0000000000
     20875       168  PMPE      H16Z          -15.7100376980       31.9219497978        2.8289114564  MEMB      168             0.0000000000
     20876       169  POPE      N             -27.8787444868       22.3578801347      -18.4529907000  MEMB      169             0.0000000000
     20877       169  POPE      HN1           -27.3100853211       22.5768195433      -19.2920344712  MEMB      169             0.0000000000
     20878       169  POPE      HN2           -28.5865499143       23.1034808025      -18.3094549933  MEMB      169             0.0000000000
     20879       169  POPE      HN3           -27.2845757819       22.3318502982      -17.6084650453  MEMB      169             0.0000000000
     20880       169  POPE      C12           -28.5401259110       21.0192929949      -18.5487126860  MEMB      169             0.0000000000
     20881       169  POPE      H12A          -28.9376678045       20.7631564062      -17.5429719829  MEMB      169             0.0000000000
     20882       169  POPE      H12B          -27.7942479849       20.2910241380      -18.8894574067  MEMB      169             0.0000000000
     20883       169  POPE      C11           -29.5694645044       20.9452549351      -19.6504850756  MEMB      169             0.0000000000
     20884       169  POPE      H11A          -30.0100384563       19.9088279112      -19.5839261072  MEMB      169             0.0000000000
     20885       169  POPE      H11B          -29.0807390353       20.9930824422      -20.6467341723  MEMB      169             0.0000000000
     20886       169  POPE      P             -31.9689237672       21.7068244683      -19.1658519069  MEMB      169             0.0000000000
     20887       169  POPE      O13           -32.2073760527       20.3218248348      -19.6081767010  MEMB      169             0.0000000000
     20888       169  POPE      O14           -32.8234157752       22.8046182320      -19.6643206024  MEMB      169             0.0000000000
     20889       169  POPE      O11           -31.8258874294       21.7356451868      -17.5769171368  MEMB      169             0.0000000000
     20890       169  POPE      O12           -30.4715455069       22.0419031417      -19.5329406147  MEMB      169             0.0000000000
     20891       169  POPE      C1            -31.6899558677       22.9710553505      -16.8760587312  MEMB      169             0.0000000000
     20892       169  POPE      HA            -32.5710369865       23.6252112883      -17.0841119282  MEMB      169             0.0000000000
     20893       169  POPE      HB            -30.8076319055       23.5344620987      -17.2589832543  MEMB      169             0.0000000000
     20894       169  POPE      C2            -31.5081645973       22.7730397586      -15.3166706663  MEMB      169             0.0000000000
     20895       169  POPE      HS            -30.4373719245       23.0492504208      -15.1193059083  MEMB      169             0.0000000000
     20896       169  POPE      O21           -31.8807148151       21.4371070750      -14.8510906857  MEMB      169             0.0000000000
     20897       169  POPE      C21           -31.0217091271       20.8873374155      -13.9934185643  MEMB      169             0.0000000000
     20898       169  POPE      O22           -29.8706498982       21.2191530536      -13.8864185807  MEMB      169             0.0000000000
     20899       169  POPE      C22           -31.5733964218       19.7261113983      -13.1695774648  MEMB      169             0.0000000000
     20900       169  POPE      H2R           -30.9223169109       18.8531650585      -13.4060073585  MEMB      169             0.0000000000
     20901       169  POPE      H2S           -32.5819990440       19.5050871759      -13.5510560423  MEMB      169             0.0000000000
     20902       169  POPE      C3            -32.3569978263       23.7931986450      -14.4925094216  MEMB      169             0.0000000000
     20903       169  POPE      HX            -33.4042335343       23.4113267687      -14.4706022161  MEMB      169             0.0000000000
     20904       169  POPE      HY            -32.3314991453       24.7572452465      -15.0492881179  MEMB      169             0.0000000000
     20905       169  POPE      O31           -31.7953609981       23.9652745001      -13.1730313721  MEMB      169             0.0000000000
     20906       169  POPE      C31           -32.4446294646       24.5938732536      -12.2121778724  MEMB      169             0.0000000000
     20907       169  POPE      O32           -33.5868683838       24.9582359402      -12.1544604504  MEMB      169             0.0000000000
     20908       169  POPE      C32           -31.6672433452       24.7019227298      -11.0080905511  MEMB      169             0.0000000000
     20909       169  POPE      H2X           -31.0126057788       23.8221142842      -10.8768320204  MEMB      169             0.0000000000
     20910       169  POPE      H2Y           -32.4691283258       24.6512458865      -10.2251650128  MEMB      169             0.0000000000
     20911       169  POPE      C23           -31.4436968608       19.9812715830      -11.6298248837  MEMB      169             0.0000000000
     20912       169  POPE      H3R           -32.0474439350       20.8490192301      -11.3040336721  MEMB      169             0.0000000000
     20913       169  POPE      H3S           -30.3781325313       20.1555719648      -11.3540392345  MEMB      169             0.0000000000
     20914       169  POPE      C24           -31.8131930686       18.7806993908      -10.7794375568  MEMB      169             0.0000000000
     20915       169  POPE      H4R           -31.3068065722       17.9356881947      -11.2846351158  MEMB      169             0.0000000000
     20916       169  POPE      H4S           -32.9091079665       18.5691716378      -10.8372326630  MEMB      169             0.0000000000
     20917       169  POPE      C25           -31.3128114508       18.7198812182       -9.3030958155  MEMB      169             0.0000000000
     20918       169  POPE      H5R           -30.2157934736       18.7545373515       -9.2202316517  MEMB      169             0.0000000000
     20919       169  POPE      H5S           -31.4315151277       17.7109205968       -8.8671744778  MEMB      169             0.0000000000
     20920       169  POPE      C26           -32.0153151893       19.7175062625       -8.3669227021  MEMB      169             0.0000000000
     20921       169  POPE      H6R           -31.4971674059       20.6785913451       -8.5210711611  MEMB      169             0.0000000000
     20922       169  POPE      H6S           -31.9008729106       19.3760293540       -7.3093707538  MEMB      169             0.0000000000
     20923       169  POPE      C27           -33.5201186775       19.8905656751       -8.6349995577  MEMB      169             0.0000000000
     20924       169  POPE      H7R           -33.9653095409       18.8813120641       -8.5390131133  MEMB      169             0.0000000000
     20925       169  POPE      H7S           -33.6946302551       20.2309104832       -9.6785321521  MEMB      169             0.0000000000
     20926       169  POPE      C28           -34.3244731328       20.8684808911       -7.7429353664  MEMB      169             0.0000000000
     20927       169  POPE      H8R           -35.3394983480       20.9668225782       -8.1911126637  MEMB      169             0.0000000000
     20928       169  POPE      H8S           -33.8964881192       21.8839954146       -7.8499838962  MEMB      169             0.0000000000
     20929       169  POPE      C29           -34.4877413428       20.4400955917       -6.3064149634  MEMB      169             0.0000000000
     20930       169  POPE      H91           -35.3746720749       19.8162832646       -6.0925909206  MEMB      169             0.0000000000
     20931       169  POPE      C210          -33.7511526719       20.8629457450       -5.2665734424  MEMB      169             0.0000000000
     20932       169  POPE      H101          -34.0274444589       20.5168246223       -4.2578376486  MEMB      169             0.0000000000
     20933       169  POPE      C211          -32.6089677425       21.8481718787       -5.2917727129  MEMB      169             0.0000000000
     20934       169  POPE      H11R          -32.3839348573       22.2022570678       -6.3237274187  MEMB      169             0.0000000000
     20935       169  POPE      H11S          -31.6997183892       21.3317477805       -4.9288086892  MEMB      169             0.0000000000
     20936       169  POPE      C212          -32.8921329997       23.1051904081       -4.4318521657  MEMB      169             0.0000000000
     20937       169  POPE      H12R          -31.9666723876       23.6864861974       -4.2740363988  MEMB      169             0.0000000000
     20938       169  POPE      H12S          -33.2354022267       22.8325889402       -3.4140454890  MEMB      169             0.0000000000
     20939       169  POPE      C213          -33.9090554358       24.0133664416       -5.1430017685  MEMB      169             0.0000000000
     20940       169  POPE      H13R          -34.7306919405       23.3774657173       -5.4963903301  MEMB      169             0.0000000000
     20941       169  POPE      H13S          -33.4195548067       24.3852921312       -6.0620705180  MEMB      169             0.0000000000
     20942       169  POPE      C214          -34.5548106842       25.1373057391       -4.3196802096  MEMB      169             0.0000000000
     20943       169  POPE      H14R          -35.0468486976       24.7269365999       -3.4271820024  MEMB      169             0.0000000000
     20944       169  POPE      H14S          -35.3615719169       25.6166333401       -4.9180118028  MEMB      169             0.0000000000
     20945       169  POPE      C215          -33.5675333565       26.1944695026       -3.8625735946  MEMB      169             0.0000000000
     20946       169  POPE      H15R          -33.1791954538       26.7009104799       -4.7735943144  MEMB      169             0.0000000000
     20947       169  POPE      H15S          -32.7250885618       25.7210592591       -3.3118577535  MEMB      169             0.0000000000
     20948       169  POPE      C216          -34.1869775658       27.2671918745       -2.9741735210  MEMB      169             0.0000000000
     20949       169  POPE      H16R          -35.1297361498       27.6725898717       -3.4106516821  MEMB      169             0.0000000000
     20950       169  POPE      H16S          -33.4143435939       28.0377938721       -2.8945409874  MEMB      169             0.0000000000
     20951       169  POPE      C217          -34.2965330448       26.9127408876       -1.5111102471  MEMB      169             0.0000000000
     20952       169  POPE      H17R          -34.3979829146       25.8232685272       -1.4126578308  MEMB      169             0.0000000000
     20953       169  POPE      H17S          -35.1472019779       27.4744049962       -1.0509339522  MEMB      169             0.0000000000
     20954       169  POPE      C218          -33.0437951624       27.0502875494       -0.7025445053  MEMB      169             0.0000000000
     20955       169  POPE      H18R          -33.2688734884       26.5652222369        0.2442228435  MEMB      169             0.0000000000
     20956       169  POPE      H18S          -32.8241979954       28.0961098596       -0.4792328969  MEMB      169             0.0000000000
     20957       169  POPE      H18T          -32.1980459376       26.5059667638       -1.1744005402  MEMB      169             0.0000000000
     20958       169  POPE      C33           -30.9316976708       26.0131375494      -10.9150210392  MEMB      169             0.0000000000
     20959       169  POPE      H3X           -31.4195275852       26.9927004669      -11.0196701184  MEMB      169             0.0000000000
     20960       169  POPE      H3Y           -30.0394853904       26.0669736437      -11.5898026104  MEMB      169             0.0000000000
     20961       169  POPE      C34           -30.4871797056       25.8420349994       -9.5160102706  MEMB      169             0.0000000000
     20962       169  POPE      H4X           -29.8907784443       26.6591738637       -9.3103094238  MEMB      169             0.0000000000
     20963       169  POPE      H4Y           -29.8460536562       24.9421977498       -9.5222499806  MEMB      169             0.0000000000
     20964       169  POPE      C35           -31.2949583766       26.1364552016       -8.2703736118  MEMB      169             0.0000000000
     20965       169  POPE      H5X           -31.8197810111       25.1831490700       -8.1169687913  MEMB      169             0.0000000000
     20966       169  POPE      H5Y           -31.9481433021       27.0132975822       -8.4682318258  MEMB      169             0.0000000000
     20967       169  POPE      C36           -30.4681816941       26.5853261160       -7.0446348309  MEMB      169             0.0000000000
     20968       169  POPE      H6X           -31.1114749948       27.1569097321       -6.3414462427  MEMB      169             0.0000000000
     20969       169  POPE      H6Y           -29.6506538363       27.2818822432       -7.3115352915  MEMB      169             0.0000000000
     20970       169  POPE      C37           -29.9844495596       25.4362583450       -6.1908384862  MEMB      169             0.0000000000
     20971       169  POPE      H7X           -29.1527522760       24.8859501298       -6.6603572815  MEMB      169             0.0000000000
     20972       169  POPE      H7Y           -30.8053008369       24.7029117388       -6.0732090082  MEMB      169             0.0000000000
     20973       169  POPE      C38           -29.6149552482       25.9381242905       -4.8118519623  MEMB      169             0.0000000000
     20974       169  POPE      H8X           -30.4432357498       26.4394628269       -4.2813528880  MEMB      169             0.0000000000
     20975       169  POPE      H8Y           -28.8695924144       26.7611037057       -4.8762650093  MEMB      169             0.0000000000
     20976       169  POPE      C39           -29.2261146562       24.7436307341       -3.9719696487  MEMB      169             0.0000000000
     20977       169  POPE      H9X           -28.2525551982       24.2928806918       -4.1174945957  MEMB      169             0.0000000000
     20978       169  POPE      H9Y           -29.9167330900       23.8940048943       -4.0148721848  MEMB      169             0.0000000000
     20979       169  POPE      C310          -29.1593358168       25.1348279770       -2.5735555318  MEMB      169             0.0000000000
     20980       169  POPE      H10X          -30.0513345757       25.6406650429       -2.1985093515  MEMB      169             0.0000000000
     20981       169  POPE      H10Y          -28.3556750021       25.9187061124       -2.5534259176  MEMB      169             0.0000000000
     20982       169  POPE      C311          -29.0302139751       23.8464037357       -1.7494065996  MEMB      169             0.0000000000
     20983       169  POPE      H11X          -27.9404228267       23.5849650058       -1.8866921987  MEMB      169             0.0000000000
     20984       169  POPE      H11Y          -29.3648037996       22.8948496570       -2.1906864063  MEMB      169             0.0000000000
     20985       169  POPE      C312          -29.7668165985       23.9148917758       -0.3203494619  MEMB      169             0.0000000000
     20986       169  POPE      H12X          -29.5236222942       22.8939913869       -0.0117761057  MEMB      169             0.0000000000
     20987       169  POPE      H12Y          -30.8381991647       24.0728086767       -0.2807142347  MEMB      169             0.0000000000
     20988       169  POPE      C313          -29.5956313469       24.8374225155        0.9654076519  MEMB      169             0.0000000000
     20989       169  POPE      H13X          -28.6636103191       24.2584494947        1.0679434026  MEMB      169             0.0000000000
     20990       169  POPE      H13Y          -29.2504504128       24.5321844906        1.9758749263  MEMB      169             0.0000000000
     20991       169  POPE      C314          -29.8462036354       26.5000597686        0.8820321387  MEMB      169             0.0000000000
     20992       169  POPE      H14X          -30.6498410306       26.6326085852        1.6122517681  MEMB      169             0.0000000000
     20993       169  POPE      H14Y          -29.9042990961       26.7860070929       -0.1725833299  MEMB      169             0.0000000000
     20994       169  POPE      C315          -29.1480643561       27.9144290266        1.3354895338  MEMB      169             0.0000000000
     20995       169  POPE      H15X          -28.1633362279       28.3704743447        1.2195601249  MEMB      169             0.0000000000
     20996       169  POPE      H15Y          -28.8644784444       27.5393410920        2.1800808371  MEMB      169             0.0000000000
     20997       169  POPE      C316          -29.5572954690       29.1419617271        1.9773960885  MEMB      169             0.0000000000
     20998       169  POPE      H16X          -28.6362988634       29.7109767329        2.2130134024  MEMB      169             0.0000000000
     20999       169  POPE      H16Y          -29.9426399523       28.9799152794        2.9954542475  MEMB      169             0.0000000000
     21000       169  POPE      H16Z          -29.9790167033       29.6860452957        1.1358288944  MEMB      169             0.0000000000
     21001       170  POPE      N              30.9281820844       20.1146354116      -20.1330191712  MEMB      170             0.0000000000
     21002       170  POPE      HN1            30.7715467353       20.3536405852      -21.1311755550  MEMB      170             0.0000000000
     21003       170  POPE      HN2            30.3691650595       20.7177785787      -19.4850305830  MEMB      170             0.0000000000
     21004       170  POPE      HN3            31.9423647373       20.1494968460      -19.8899620598  MEMB      170             0.0000000000
     21005       170  POPE      C12            30.6204839293       18.6801839863      -19.8334323221  MEMB      170             0.0000000000
     21006       170  POPE      H12A           29.7266826617       18.3859663956      -20.4161331466  MEMB      170             0.0000000000
     21007       170  POPE      H12B           30.3939069673       18.6361306508      -18.7464047409  MEMB      170             0.0000000000
     21008       170  POPE      C11            31.8285871874       17.7747777189      -20.1572752919  MEMB      170             0.0000000000
     21009       170  POPE      H11A           31.8890289164       17.6246436936      -21.2588764404  MEMB      170             0.0000000000
     21010       170  POPE      H11B           31.6316456707       16.7705789980      -19.7047999819  MEMB      170             0.0000000000
     21011       170  POPE      P              33.7950318029       18.1893911413      -18.3639656445  MEMB      170             0.0000000000
     21012       170  POPE      O13            35.1909867444       18.6604925078      -18.4829799832  MEMB      170             0.0000000000
     21013       170  POPE      O14            33.5041849675       16.8477111233      -17.8299111521  MEMB      170             0.0000000000
     21014       170  POPE      O11            32.9415544836       19.2547058630      -17.6101186350  MEMB      170             0.0000000000
     21015       170  POPE      O12            33.0737836825       18.3566582698      -19.7707948650  MEMB      170             0.0000000000
     21016       170  POPE      C1             33.0834951246       20.6406596263      -17.8107550145  MEMB      170             0.0000000000
     21017       170  POPE      HA             32.0661890897       21.0459751092      -17.9877351139  MEMB      170             0.0000000000
     21018       170  POPE      HB             33.7618241924       20.9375482508      -18.6465795389  MEMB      170             0.0000000000
     21019       170  POPE      C2             33.5257583183       21.2829971213      -16.5155971810  MEMB      170             0.0000000000
     21020       170  POPE      HS             34.6466538081       21.1886255935      -16.3976958606  MEMB      170             0.0000000000
     21021       170  POPE      O21            32.7928092455       20.6954066060      -15.4179215783  MEMB      170             0.0000000000
     21022       170  POPE      C21            33.4719948729       20.6589625984      -14.2821510092  MEMB      170             0.0000000000
     21023       170  POPE      O22            34.6815229037       20.7623296305      -14.1652129179  MEMB      170             0.0000000000
     21024       170  POPE      C22            32.4981861223       20.7144891407      -13.1014864152  MEMB      170             0.0000000000
     21025       170  POPE      H2R            32.1018580046       19.6891418039      -13.0557430334  MEMB      170             0.0000000000
     21026       170  POPE      H2S            31.6591461241       21.4255190461      -13.2885978457  MEMB      170             0.0000000000
     21027       170  POPE      C3             33.1678480122       22.7611859194      -16.5817424946  MEMB      170             0.0000000000
     21028       170  POPE      HX             32.3644613203       23.1295378848      -17.2444740884  MEMB      170             0.0000000000
     21029       170  POPE      HY             34.1362566443       23.1632817301      -17.0053616682  MEMB      170             0.0000000000
     21030       170  POPE      O31            32.8956209180       23.0854231901      -15.2065634292  MEMB      170             0.0000000000
     21031       170  POPE      C31            31.9507094768       23.8835561688      -14.4620432208  MEMB      170             0.0000000000
     21032       170  POPE      O32            30.8623663943       23.9464186406      -14.9491358951  MEMB      170             0.0000000000
     21033       170  POPE      C32            32.3780969677       24.8134915007      -13.0964733139  MEMB      170             0.0000000000
     21034       170  POPE      H2X            33.2269394014       25.5082396472      -13.0748275134  MEMB      170             0.0000000000
     21035       170  POPE      H2Y            33.3398055090       25.0201576534      -12.6264237083  MEMB      170             0.0000000000
     21036       170  POPE      C23            33.2237025567       21.0607789710      -11.7766426680  MEMB      170             0.0000000000
     21037       170  POPE      H3R            33.4795023270       22.1272931802      -11.7092638604  MEMB      170             0.0000000000
     21038       170  POPE      H3S            34.1897242383       20.5201253261      -11.6810824227  MEMB      170             0.0000000000
     21039       170  POPE      C24            32.4540237789       20.7776868982      -10.5060581179  MEMB      170             0.0000000000
     21040       170  POPE      H4R            32.7127314674       21.5561845232       -9.7453667969  MEMB      170             0.0000000000
     21041       170  POPE      H4S            32.8366844277       19.8129057363      -10.1227208596  MEMB      170             0.0000000000
     21042       170  POPE      C25            30.9542830836       20.6611705027      -10.6863500404  MEMB      170             0.0000000000
     21043       170  POPE      H5R            30.6709252812       19.8625603778      -11.3953221029  MEMB      170             0.0000000000
     21044       170  POPE      H5S            30.5611184003       21.6082327361      -11.1181535860  MEMB      170             0.0000000000
     21045       170  POPE      C26            30.4114579883       20.3748739201       -9.3076020098  MEMB      170             0.0000000000
     21046       170  POPE      H6R            30.9625258413       19.5166034853       -8.8450710871  MEMB      170             0.0000000000
     21047       170  POPE      H6S            29.3518886208       20.0003174743       -9.3840446464  MEMB      170             0.0000000000
     21048       170  POPE      C27            30.5969947817       21.7031377639       -8.4617665975  MEMB      170             0.0000000000
     21049       170  POPE      H7R            31.4845379106       22.1024156478       -8.1336212237  MEMB      170             0.0000000000
     21050       170  POPE      H7S            30.3786006771       21.1952891425       -7.4655931651  MEMB      170             0.0000000000
     21051       170  POPE      C28            29.8923635367       23.2092079489       -9.0512155305  MEMB      170             0.0000000000
     21052       170  POPE      H8R            29.4976919887       22.2579180913       -9.5164798793  MEMB      170             0.0000000000
     21053       170  POPE      H8S            29.7110006914       23.0905880960      -10.1398133008  MEMB      170             0.0000000000
     21054       170  POPE      C29            28.8444173822       24.5405003023       -8.3712160317  MEMB      170             0.0000000000
     21055       170  POPE      H91            29.9070722353       24.9271181937       -8.3183176208  MEMB      170             0.0000000000
     21056       170  POPE      C210           27.7030040700       24.8847664340       -7.1832113994  MEMB      170             0.0000000000
     21057       170  POPE      H101           27.9601560370       24.9137967906       -6.1603961891  MEMB      170             0.0000000000
     21058       170  POPE      C211           26.8339391278       23.9750507379       -5.8280098221  MEMB      170             0.0000000000
     21059       170  POPE      H11R           26.1193157217       23.3297875363       -6.3454313933  MEMB      170             0.0000000000
     21060       170  POPE      H11S           26.2374600310       24.4919672871       -5.0257299866  MEMB      170             0.0000000000
     21061       170  POPE      C212           27.1218761196       22.4484368837       -4.8140772721  MEMB      170             0.0000000000
     21062       170  POPE      H12R           27.9260257411       21.6537537225       -5.0574617715  MEMB      170             0.0000000000
     21063       170  POPE      H12S           26.4973603808       21.5621003058       -4.9331923366  MEMB      170             0.0000000000
     21064       170  POPE      C213           27.9583265007       22.6102901078       -3.5344624869  MEMB      170             0.0000000000
     21065       170  POPE      H13R           27.1368863503       23.0963019347       -3.0227197230  MEMB      170             0.0000000000
     21066       170  POPE      H13S           28.7453619904       23.3322403050       -3.5640160322  MEMB      170             0.0000000000
     21067       170  POPE      C214           28.8344568523       21.4178025648       -3.0034381722  MEMB      170             0.0000000000
     21068       170  POPE      H14R           29.7241665190       21.1662584156       -3.5941918526  MEMB      170             0.0000000000
     21069       170  POPE      H14S           28.2813025027       20.5064855481       -3.2604335565  MEMB      170             0.0000000000
     21070       170  POPE      C215           29.4005388688       21.6014423973       -1.5669835637  MEMB      170             0.0000000000
     21071       170  POPE      H15R           28.6841588799       21.6497643275       -0.7897158232  MEMB      170             0.0000000000
     21072       170  POPE      H15S           30.0064861921       22.5252363615       -1.4644747008  MEMB      170             0.0000000000
     21073       170  POPE      C216           30.0376037403       20.4196958825       -0.8936118704  MEMB      170             0.0000000000
     21074       170  POPE      H16R           29.5931137916       19.4426513637       -1.1671866696  MEMB      170             0.0000000000
     21075       170  POPE      H16S           29.9360217793       20.4792010831        0.2345756840  MEMB      170             0.0000000000
     21076       170  POPE      C217           31.4431002877       20.5124733814       -1.2846984649  MEMB      170             0.0000000000
     21077       170  POPE      H17R           31.8576025144       21.4853954804       -0.9114785908  MEMB      170             0.0000000000
     21078       170  POPE      H17S           31.6150260466       20.3820030817       -2.3642356985  MEMB      170             0.0000000000
     21079       170  POPE      C218           32.0665625041       19.4415801450       -0.5606079021  MEMB      170             0.0000000000
     21080       170  POPE      H18R           31.8096360333       19.7515417903        0.4942714803  MEMB      170             0.0000000000
     21081       170  POPE      H18S           33.1445509514       19.4526278474       -0.7911042197  MEMB      170             0.0000000000
     21082       170  POPE      H18T           31.7562603846       18.3929884857       -0.6540474322  MEMB      170             0.0000000000
     21083       170  POPE      C33            31.5273780996       25.4438470834      -12.1467650722  MEMB      170             0.0000000000
     21084       170  POPE      H3X            31.1476570643       24.4337496253      -11.8988907468  MEMB      170             0.0000000000
     21085       170  POPE      H3Y            30.9710616191       26.1061525495      -12.8351209146  MEMB      170             0.0000000000
     21086       170  POPE      C34            32.4307884755       26.2367316222      -11.1666715799  MEMB      170             0.0000000000
     21087       170  POPE      H4X            31.7140546755       26.7669022396      -10.5532531759  MEMB      170             0.0000000000
     21088       170  POPE      H4Y            33.1208412484       27.0050056126      -11.6312443115  MEMB      170             0.0000000000
     21089       170  POPE      C35            33.3292191123       25.3773428850      -10.2907627407  MEMB      170             0.0000000000
     21090       170  POPE      H5X            34.1286200288       25.0013386556      -10.9427348342  MEMB      170             0.0000000000
     21091       170  POPE      H5Y            32.7719495742       24.5254040525       -9.8809134681  MEMB      170             0.0000000000
     21092       170  POPE      C36            33.9439088888       26.2798713698       -9.2563903543  MEMB      170             0.0000000000
     21093       170  POPE      H6X            33.2025502613       26.9314660489       -8.7850226277  MEMB      170             0.0000000000
     21094       170  POPE      H6Y            34.5644548577       26.9103398404       -9.9135273255  MEMB      170             0.0000000000
     21095       170  POPE      C37            34.8214040703       25.6008010680       -8.2231920005  MEMB      170             0.0000000000
     21096       170  POPE      H7X            35.3128723515       26.3791582299       -7.6063302092  MEMB      170             0.0000000000
     21097       170  POPE      H7Y            35.5181712407       25.2247798174       -8.9639000436  MEMB      170             0.0000000000
     21098       170  POPE      C38            34.2088677403       24.5467866048       -7.2556171599  MEMB      170             0.0000000000
     21099       170  POPE      H8X            33.1226827781       24.6949040655       -7.2434143306  MEMB      170             0.0000000000
     21100       170  POPE      H8Y            34.5860383512       24.8180688634       -6.2383463002  MEMB      170             0.0000000000
     21101       170  POPE      C39            34.3992845803       23.0234881447       -7.5173315155  MEMB      170             0.0000000000
     21102       170  POPE      H9X            35.3844426068       22.6356482491       -7.2903793466  MEMB      170             0.0000000000
     21103       170  POPE      H9Y            34.2957458566       22.7707687153       -8.5853146869  MEMB      170             0.0000000000
     21104       170  POPE      C310           33.7515634753       21.9729556074       -6.6329387367  MEMB      170             0.0000000000
     21105       170  POPE      H10X           34.3682002984       21.0404128306       -6.6287875225  MEMB      170             0.0000000000
     21106       170  POPE      H10Y           32.8900255404       21.7087307327       -7.2049030443  MEMB      170             0.0000000000
     21107       170  POPE      C311           33.3113232686       22.4314276428       -5.2494076483  MEMB      170             0.0000000000
     21108       170  POPE      H11X           32.5415931203       21.7419025974       -4.8747886846  MEMB      170             0.0000000000
     21109       170  POPE      H11Y           32.8963452243       23.4626776531       -5.3390120683  MEMB      170             0.0000000000
     21110       170  POPE      C312           34.4066000097       22.3721331794       -4.2084490397  MEMB      170             0.0000000000
     21111       170  POPE      H12X           34.9249133610       23.2674112380       -4.5054807518  MEMB      170             0.0000000000
     21112       170  POPE      H12Y           35.0497192028       21.4736891577       -4.3153870724  MEMB      170             0.0000000000
     21113       170  POPE      C313           34.0976305571       22.6946921060       -2.7500038083  MEMB      170             0.0000000000
     21114       170  POPE      H13X           35.0353417495       22.5834173215       -2.1544565313  MEMB      170             0.0000000000
     21115       170  POPE      H13Y           33.3741749298       21.9907287535       -2.3240378969  MEMB      170             0.0000000000
     21116       170  POPE      C314           33.6495185180       24.1294411829       -2.4833297488  MEMB      170             0.0000000000
     21117       170  POPE      H14X           32.9166939099       24.4383219007       -3.2609196459  MEMB      170             0.0000000000
     21118       170  POPE      H14Y           34.4537213145       24.8966465541       -2.5607597685  MEMB      170             0.0000000000
     21119       170  POPE      C315           33.1940035100       24.0888083721       -1.0230193368  MEMB      170             0.0000000000
     21120       170  POPE      H15X           33.9947966219       23.8672875777       -0.3073333106  MEMB      170             0.0000000000
     21121       170  POPE      H15Y           32.3236362508       23.4021309250       -0.9458772843  MEMB      170             0.0000000000
     21122       170  POPE      C316           32.7538158819       25.3744354511       -0.5619395487  MEMB      170             0.0000000000
     21123       170  POPE      H16X           32.2029952399       25.5844695863        0.3683709271  MEMB      170             0.0000000000
     21124       170  POPE      H16Y           31.9091062222       25.3212779657       -1.2462509505  MEMB      170             0.0000000000
     21125       170  POPE      H16Z           33.4393423941       26.2073624814       -0.8672187285  MEMB      170             0.0000000000
     21126       171  PYPG      C13             8.4893732846      -35.5103044728      -20.5922776162  MEMB      171             0.0000000000
     21127       171  PYPG      H13A            7.9809387766      -34.6777842232      -21.1177567561  MEMB      171             0.0000000000
     21128       171  PYPG      H13B            8.6195999852      -36.3457191016      -21.3089135056  MEMB      171             0.0000000000
     21129       171  PYPG      OC3             7.5830075660      -35.9831271769      -19.5746824772  MEMB      171             0.0000000000
     21130       171  PYPG      HO3             7.3830249988      -35.2504989582      -18.9834365542  MEMB      171             0.0000000000
     21131       171  PYPG      C12             9.8993003963      -34.9380837202      -20.1583089939  MEMB      171             0.0000000000
     21132       171  PYPG      H12A            9.7445566392      -34.1999343823      -19.3477494638  MEMB      171             0.0000000000
     21133       171  PYPG      OC2            10.4977348332      -34.2079317656      -21.2381037947  MEMB      171             0.0000000000
     21134       171  PYPG      HO2            11.4386948724      -34.1487689871      -21.0158850901  MEMB      171             0.0000000000
     21135       171  PYPG      C11            10.9160120234      -35.9713582833      -19.6295738388  MEMB      171             0.0000000000
     21136       171  PYPG      H11A           11.7613887146      -35.4304149926      -19.1337316522  MEMB      171             0.0000000000
     21137       171  PYPG      H11B           11.3050953191      -36.5683696728      -20.4820679094  MEMB      171             0.0000000000
     21138       171  PYPG      P              11.1479175891      -37.7976704622      -17.8174998871  MEMB      171             0.0000000000
     21139       171  PYPG      O13            12.2916136383      -37.0834332979      -17.2080530233  MEMB      171             0.0000000000
     21140       171  PYPG      O14            11.3358430336      -39.1042150031      -18.4810889031  MEMB      171             0.0000000000
     21141       171  PYPG      O11            10.0983134557      -38.0239337068      -16.7119785250  MEMB      171             0.0000000000
     21142       171  PYPG      O12            10.2758401607      -36.8259481858      -18.7026662609  MEMB      171             0.0000000000
     21143       171  PYPG      C1              8.9742451672      -38.8576495865      -16.9194914105  MEMB      171             0.0000000000
     21144       171  PYPG      HA              9.2301628644      -39.8805642761      -17.2836675660  MEMB      171             0.0000000000
     21145       171  PYPG      HB              8.1944607567      -38.3987128071      -17.5810172754  MEMB      171             0.0000000000
     21146       171  PYPG      C2              8.2954359005      -38.9372958397      -15.5941737496  MEMB      171             0.0000000000
     21147       171  PYPG      HS              7.4346653611      -39.5733140072      -15.7710196665  MEMB      171             0.0000000000
     21148       171  PYPG      O21             7.8808311878      -37.5579066565      -15.3632271423  MEMB      171             0.0000000000
     21149       171  PYPG      C21             7.6790953274      -37.0953647838      -14.1480324344  MEMB      171             0.0000000000
     21150       171  PYPG      O22             8.0306610613      -37.5991013175      -13.1106571390  MEMB      171             0.0000000000
     21151       171  PYPG      C22             6.9294867783      -35.8188596256      -13.9908265228  MEMB      171             0.0000000000
     21152       171  PYPG      H2R             6.1601163152      -35.4470286379      -14.6853510774  MEMB      171             0.0000000000
     21153       171  PYPG      H2S             7.8228281471      -35.2037340714      -14.1136906573  MEMB      171             0.0000000000
     21154       171  PYPG      C3              9.1872786000      -39.5843760511      -14.4668094152  MEMB      171             0.0000000000
     21155       171  PYPG      HX              9.4522661074      -40.5995790224      -14.8286725809  MEMB      171             0.0000000000
     21156       171  PYPG      HY              8.6356918230      -39.7507784134      -13.5106242357  MEMB      171             0.0000000000
     21157       171  PYPG      O31            10.3664240175      -38.8241254228      -14.2406484939  MEMB      171             0.0000000000
     21158       171  PYPG      C31            11.2234485465      -39.3955734838      -13.4556046600  MEMB      171             0.0000000000
     21159       171  PYPG      O32            11.1169075325      -40.4991208177      -12.9471837326  MEMB      171             0.0000000000
     21160       171  PYPG      C32            12.3925484986      -38.4788003779      -13.2064751640  MEMB      171             0.0000000000
     21161       171  PYPG      H2X            12.8528609204      -38.8668656082      -12.2748908024  MEMB      171             0.0000000000
     21162       171  PYPG      H2Y            13.0829296735      -38.5462054387      -14.0600207400  MEMB      171             0.0000000000
     21163       171  PYPG      C23             6.4222104293      -35.6783010026      -12.5714562569  MEMB      171             0.0000000000
     21164       171  PYPG      H3R             7.2192644255      -35.6704455407      -11.8187587908  MEMB      171             0.0000000000
     21165       171  PYPG      H3S             5.5410872089      -36.1799297563      -12.1131613045  MEMB      171             0.0000000000
     21166       171  PYPG      C24             5.7564683680      -34.4206690562      -12.5374696726  MEMB      171             0.0000000000
     21167       171  PYPG      H4R             4.7512441105      -34.7286528581      -12.9257184385  MEMB      171             0.0000000000
     21168       171  PYPG      H4S             6.1358235579      -33.6505989770      -13.2317673445  MEMB      171             0.0000000000
     21169       171  PYPG      C25             5.8430522051      -34.1519746392      -11.0627836388  MEMB      171             0.0000000000
     21170       171  PYPG      H5R             5.4620729225      -34.8630983354      -10.3096236744  MEMB      171             0.0000000000
     21171       171  PYPG      H5S             4.9302307401      -33.8688548322      -10.9338104997  MEMB      171             0.0000000000
     21172       171  PYPG      C26             6.7591443552      -33.0399946468      -10.6481260435  MEMB      171             0.0000000000
     21173       171  PYPG      H6R             7.0081725405      -32.2780939948      -11.4188831421  MEMB      171             0.0000000000
     21174       171  PYPG      H6S             7.5987026034      -33.6744764750      -10.3596708526  MEMB      171             0.0000000000
     21175       171  PYPG      C27             6.3573583926      -32.3225502586       -9.4095709814  MEMB      171             0.0000000000
     21176       171  PYPG      H7R             5.8045197526      -33.0737203271       -8.7739578839  MEMB      171             0.0000000000
     21177       171  PYPG      H7S             5.7278682653      -31.4550268952       -9.7340525628  MEMB      171             0.0000000000
     21178       171  PYPG      C28             7.5213360735      -31.6727672199       -8.7051637414  MEMB      171             0.0000000000
     21179       171  PYPG      H8R             7.7443490808      -30.7092668904       -9.2179890634  MEMB      171             0.0000000000
     21180       171  PYPG      H8S             8.3610515182      -32.3371956912       -8.5499050561  MEMB      171             0.0000000000
     21181       171  PYPG      C29             7.0153726116      -31.3433119202       -7.4049365457  MEMB      171             0.0000000000
     21182       171  PYPG      H9R             6.0961339968      -30.8473287159       -7.6645053825  MEMB      171             0.0000000000
     21183       171  PYPG      C210            7.2973132681      -31.6934057622       -6.1411215298  MEMB      171             0.0000000000
     21184       171  PYPG      H10R            6.7368391338      -31.3097550332       -5.2682009819  MEMB      171             0.0000000000
     21185       171  PYPG      C211            8.2490080335      -32.5619436371       -5.5898126041  MEMB      171             0.0000000000
     21186       171  PYPG      H11R            9.1781244091      -31.9818911307       -5.6863853407  MEMB      171             0.0000000000
     21187       171  PYPG      H11S            8.0937414739      -33.4157448691       -6.2566966126  MEMB      171             0.0000000000
     21188       171  PYPG      C212            7.9215991006      -32.8850433689       -4.1353162442  MEMB      171             0.0000000000
     21189       171  PYPG      H12R            8.0624980398      -32.0377618381       -3.4407171693  MEMB      171             0.0000000000
     21190       171  PYPG      H12S            8.7082011381      -33.6292488401       -3.8959821201  MEMB      171             0.0000000000
     21191       171  PYPG      C213            6.5330997141      -33.4513958597       -3.8649991066  MEMB      171             0.0000000000
     21192       171  PYPG      H13R            6.2121161854      -34.1571575976       -4.6648827436  MEMB      171             0.0000000000
     21193       171  PYPG      H13S            5.7252890820      -32.6838475480       -3.7770347049  MEMB      171             0.0000000000
     21194       171  PYPG      C214            6.5842917535      -34.2425325414       -2.6022696463  MEMB      171             0.0000000000
     21195       171  PYPG      H14R            7.5186624181      -34.8151765228       -2.4263907269  MEMB      171             0.0000000000
     21196       171  PYPG      H14S            6.4813768563      -33.6153821833       -1.7072419625  MEMB      171             0.0000000000
     21197       171  PYPG      C215            5.4621022206      -35.1884939419       -2.6855227744  MEMB      171             0.0000000000
     21198       171  PYPG      H15R            5.4505158257      -35.9721724386       -3.4683229408  MEMB      171             0.0000000000
     21199       171  PYPG      H15S            4.4960904171      -34.6169570688       -2.6067910295  MEMB      171             0.0000000000
     21200       171  PYPG      C216            5.5925771002      -35.9333885065       -1.4927239956  MEMB      171             0.0000000000
     21201       171  PYPG      H16R            4.8822354166      -36.7695537310       -1.5302815801  MEMB      171             0.0000000000
     21202       171  PYPG      H16S            5.2115098726      -35.1806521529       -0.7515371678  MEMB      171             0.0000000000
     21203       171  PYPG      H16T            6.5672013889      -36.3514256064       -1.1531328625  MEMB      171             0.0000000000
     21204       171  PYPG      C33            12.0955592076      -36.9840691485      -13.1730557067  MEMB      171             0.0000000000
     21205       171  PYPG      H3X            11.5476731770      -36.6549007551      -14.0913519943  MEMB      171             0.0000000000
     21206       171  PYPG      H3Y            13.0826511371      -36.4670617845      -13.1702250187  MEMB      171             0.0000000000
     21207       171  PYPG      C34            11.3562507080      -36.6070635845      -11.9107512546  MEMB      171             0.0000000000
     21208       171  PYPG      H4X            12.0229126374      -36.7938181503      -11.0400454715  MEMB      171             0.0000000000
     21209       171  PYPG      H4Y            10.4783252494      -37.2856650026      -11.8054329385  MEMB      171             0.0000000000
     21210       171  PYPG      C35            10.8658196194      -35.1644161881      -12.0272652654  MEMB      171             0.0000000000
     21211       171  PYPG      H5X            10.3503567217      -35.0861873895      -13.0188217990  MEMB      171             0.0000000000
     21212       171  PYPG      H5Y            11.7104663851      -34.4465473189      -12.0325551887  MEMB      171             0.0000000000
     21213       171  PYPG      C36             9.8486377739      -34.8061827917      -10.9558086011  MEMB      171             0.0000000000
     21214       171  PYPG      H6X             8.9633857152      -35.4179318062      -11.2035068523  MEMB      171             0.0000000000
     21215       171  PYPG      H6Y             9.5630993962      -33.7317699104      -11.0076525478  MEMB      171             0.0000000000
     21216       171  PYPG      C37            10.2358021124      -35.1437753792       -9.5163665424  MEMB      171             0.0000000000
     21217       171  PYPG      H7X             9.3147777969      -34.9959429660       -8.9059495914  MEMB      171             0.0000000000
     21218       171  PYPG      H7Y            10.5586861341      -36.2031664843       -9.4236207581  MEMB      171             0.0000000000
     21219       171  PYPG      C38            11.2942128182      -34.2078458012       -8.9404649095  MEMB      171             0.0000000000
     21220       171  PYPG      H8X            11.1087006864      -33.1867936928       -9.3391279358  MEMB      171             0.0000000000
     21221       171  PYPG      H8Y            12.2962650469      -34.5332019028       -9.3048094351  MEMB      171             0.0000000000
     21222       171  PYPG      C39            11.2487696052      -34.1669550197       -7.4006588286  MEMB      171             0.0000000000
     21223       171  PYPG      H9X            11.1247381459      -35.2137433191       -7.0394751466  MEMB      171             0.0000000000
     21224       171  PYPG      H9Y            10.4095936542      -33.5521276665       -7.0283695996  MEMB      171             0.0000000000
     21225       171  PYPG      C310           12.5394118474      -33.5768310059       -6.8465047462  MEMB      171             0.0000000000
     21226       171  PYPG      H10X           12.7143262377      -32.5692628005       -7.2704778205  MEMB      171             0.0000000000
     21227       171  PYPG      H10Y           13.2122505232      -34.2312440100       -7.3795086810  MEMB      171             0.0000000000
     21228       171  PYPG      C311           12.7237509937      -33.5993191711       -5.3139701854  MEMB      171             0.0000000000
     21229       171  PYPG      H11X           11.8974230556      -32.9705811471       -4.9277151275  MEMB      171             0.0000000000
     21230       171  PYPG      H11Y           13.6828646446      -33.1382115469       -4.9717478524  MEMB      171             0.0000000000
     21231       171  PYPG      C312           12.6086596671      -34.9870177380       -4.6573275922  MEMB      171             0.0000000000
     21232       171  PYPG      H12X           11.6460078016      -35.4459116685       -4.9543777648  MEMB      171             0.0000000000
     21233       171  PYPG      H12Y           13.4069608019      -35.6354570466       -5.0481218499  MEMB      171             0.0000000000
     21234       171  PYPG      C313           12.7481074986      -34.9461899514       -3.1242784275  MEMB      171             0.0000000000
     21235       171  PYPG      H13X           13.8153403048      -34.7308800339       -2.8886836936  MEMB      171             0.0000000000
     21236       171  PYPG      H13Y           12.1244883639      -34.1149185256       -2.7312969378  MEMB      171             0.0000000000
     21237       171  PYPG      C314           12.3107864531      -36.2336013595       -2.4057178003  MEMB      171             0.0000000000
     21238       171  PYPG      H14X           11.2240797572      -36.3986899547       -2.5731312846  MEMB      171             0.0000000000
     21239       171  PYPG      H14Y           12.8393963782      -37.1021186052       -2.8442726543  MEMB      171             0.0000000000
     21240       171  PYPG      C315           12.5111837987      -36.2131479008       -0.8839605857  MEMB      171             0.0000000000
     21241       171  PYPG      H15X           12.3854038638      -37.2495685649       -0.5006143294  MEMB      171             0.0000000000
     21242       171  PYPG      H15Y           13.5336554100      -35.8648693725       -0.6041767190  MEMB      171             0.0000000000
     21243       171  PYPG      C316           11.5348537095      -35.2958658942       -0.1854642852  MEMB      171             0.0000000000
     21244       171  PYPG      H16X           10.5649203215      -35.2275770807       -0.7103163941  MEMB      171             0.0000000000
     21245       171  PYPG      H16Y           11.9802331936      -34.3097828614       -0.2581319152  MEMB      171             0.0000000000
     21246       171  PYPG      H16Z           11.3958091214      -35.5353279300        0.8874494344  MEMB      171             0.0000000000
     21247       172  PMPE      N              35.2134695230      -19.4456897490      -20.8470378213  MEMB      172             0.0000000000
     21248       172  PMPE      HN1            35.9484824717      -20.0773188745      -21.1986400134  MEMB      172             0.0000000000
     21249       172  PMPE      HN2            34.3494200626      -19.9256614840      -20.5031938465  MEMB      172             0.0000000000
     21250       172  PMPE      HN3            34.9159186160      -18.8667891833      -21.6582014885  MEMB      172             0.0000000000
     21251       172  PMPE      C12            35.7784560466      -18.5889014344      -19.7457192795  MEMB      172             0.0000000000
     21252       172  PMPE      H12A           36.8690602040      -18.4768322899      -19.9157758704  MEMB      172             0.0000000000
     21253       172  PMPE      H12B           35.6322001254      -19.1255017716      -18.7853912157  MEMB      172             0.0000000000
     21254       172  PMPE      C11            35.0901693330      -17.2175459752      -19.7138464303  MEMB      172             0.0000000000
     21255       172  PMPE      H11A           35.3409998620      -16.6643491806      -20.6480728823  MEMB      172             0.0000000000
     21256       172  PMPE      H11B           35.5471999607      -16.6458905024      -18.8643314510  MEMB      172             0.0000000000
     21257       172  PMPE      P              32.8623584130      -17.0554320470      -18.2809314958  MEMB      172             0.0000000000
     21258       172  PMPE      O13            33.4581633463      -17.9244223811      -17.2470196971  MEMB      172             0.0000000000
     21259       172  PMPE      O14            31.4250038286      -17.1625192993      -18.5461015052  MEMB      172             0.0000000000
     21260       172  PMPE      O11            33.2650439573      -15.5393240817      -18.0698321570  MEMB      172             0.0000000000
     21261       172  PMPE      O12            33.6632637033      -17.3456869328      -19.6366769786  MEMB      172             0.0000000000
     21262       172  PMPE      C1             32.4326243503      -14.7336603598      -17.2238272477  MEMB      172             0.0000000000
     21263       172  PMPE      HA             31.4781625487      -15.2403997447      -16.9325361597  MEMB      172             0.0000000000
     21264       172  PMPE      HB             32.1848382604      -13.8122404881      -17.7786663494  MEMB      172             0.0000000000
     21265       172  PMPE      C2             33.1282037655      -14.4050885393      -15.8919982114  MEMB      172             0.0000000000
     21266       172  PMPE      HS             33.7816298203      -13.5073869318      -16.1042433972  MEMB      172             0.0000000000
     21267       172  PMPE      O21            33.8091287169      -15.6474509542      -15.5486695220  MEMB      172             0.0000000000
     21268       172  PMPE      C21            34.8363509901      -15.3988579762      -14.8182749402  MEMB      172             0.0000000000
     21269       172  PMPE      O22            35.1404733810      -14.2961105872      -14.5083333752  MEMB      172             0.0000000000
     21270       172  PMPE      C22            35.6245408167      -16.5834322713      -14.3136794885  MEMB      172             0.0000000000
     21271       172  PMPE      H2R            36.0577714781      -17.0145638544      -15.2354268728  MEMB      172             0.0000000000
     21272       172  PMPE      H2S            34.8639114210      -17.1836713545      -13.7911829824  MEMB      172             0.0000000000
     21273       172  PMPE      C3             32.1150436516      -14.0378571397      -14.7620655438  MEMB      172             0.0000000000
     21274       172  PMPE      HX             31.6354401874      -15.0123356766      -14.5223306892  MEMB      172             0.0000000000
     21275       172  PMPE      HY             31.3536072282      -13.3297586358      -15.1400011272  MEMB      172             0.0000000000
     21276       172  PMPE      O31            32.7204688218      -13.4687127489      -13.5916381955  MEMB      172             0.0000000000
     21277       172  PMPE      C31            31.9741871065      -13.6062836233      -12.4989846331  MEMB      172             0.0000000000
     21278       172  PMPE      O32            30.8985179453      -14.1588808160      -12.4166083910  MEMB      172             0.0000000000
     21279       172  PMPE      C32            32.7061836033      -13.0940142968      -11.3323007033  MEMB      172             0.0000000000
     21280       172  PMPE      H2X            32.4472577816      -13.6632365494      -10.4104827877  MEMB      172             0.0000000000
     21281       172  PMPE      H2Y            32.5248295488      -12.0000601887      -11.2140055857  MEMB      172             0.0000000000
     21282       172  PMPE      C23            36.7395120951      -16.1783630252      -13.3189884102  MEMB      172             0.0000000000
     21283       172  PMPE      H3R            36.2877319683      -15.5894673714      -12.4918283644  MEMB      172             0.0000000000
     21284       172  PMPE      H3S            37.4772194112      -15.5736867556      -13.8988077489  MEMB      172             0.0000000000
     21285       172  PMPE      C24            37.5723089463      -17.2054761042      -12.5477646699  MEMB      172             0.0000000000
     21286       172  PMPE      H4R            38.1209905940      -16.5696550473      -11.8018680636  MEMB      172             0.0000000000
     21287       172  PMPE      H4S            38.3221359851      -17.6696123280      -13.2141695699  MEMB      172             0.0000000000
     21288       172  PMPE      C25            36.8078635327      -18.3278199079      -11.8680830830  MEMB      172             0.0000000000
     21289       172  PMPE      H5R            37.5308238965      -18.9541816470      -11.2911153942  MEMB      172             0.0000000000
     21290       172  PMPE      H5S            36.3253325422      -18.9713033191      -12.6311307181  MEMB      172             0.0000000000
     21291       172  PMPE      C26            35.7416675902      -17.7796092848      -10.9391271642  MEMB      172             0.0000000000
     21292       172  PMPE      H6R            34.7671717643      -17.6397137465      -11.4530921971  MEMB      172             0.0000000000
     21293       172  PMPE      H6S            36.1092640025      -16.7909134543      -10.6532231763  MEMB      172             0.0000000000
     21294       172  PMPE      C27            35.5121620114      -18.6659339487       -9.7294652025  MEMB      172             0.0000000000
     21295       172  PMPE      H7R            36.4702157441      -18.8396847398       -9.1882298936  MEMB      172             0.0000000000
     21296       172  PMPE      H7S            35.1567478549      -19.6236698280      -10.1695649699  MEMB      172             0.0000000000
     21297       172  PMPE      C28            34.4719024562      -18.0568629345       -8.7784617011  MEMB      172             0.0000000000
     21298       172  PMPE      H8R            33.5795904068      -17.7285596627       -9.3482217740  MEMB      172             0.0000000000
     21299       172  PMPE      H8S            34.9139327650      -17.2000780721       -8.2392204842  MEMB      172             0.0000000000
     21300       172  PMPE      C29            34.1253984192      -18.9906550045       -7.6689997058  MEMB      172             0.0000000000
     21301       172  PMPE      H9R            34.9987078629      -19.5758607290       -7.2621832762  MEMB      172             0.0000000000
     21302       172  PMPE      C217           33.1203135161      -19.9432089056       -8.2139882458  MEMB      172             0.0000000000
     21303       172  PMPE      H17R           33.7388792285      -20.7383617603       -7.9533277857  MEMB      172             0.0000000000
     21304       172  PMPE      H17S           32.6354077115      -19.8135612277       -9.1751579014  MEMB      172             0.0000000000
     21305       172  PMPE      C210           32.7389409164      -19.1800206011       -7.0637616651  MEMB      172             0.0000000000
     21306       172  PMPE      H10R           32.7099750891      -19.7627765454       -6.1255922387  MEMB      172             0.0000000000
     21307       172  PMPE      C211           31.5594869494      -18.3665775794       -7.4841586178  MEMB      172             0.0000000000
     21308       172  PMPE      H11R           30.6034596678      -18.9118568368       -7.3826236721  MEMB      172             0.0000000000
     21309       172  PMPE      H11S           31.5844403933      -18.1122450809       -8.5647766814  MEMB      172             0.0000000000
     21310       172  PMPE      C212           31.7047801169      -17.1148944805       -6.6524530361  MEMB      172             0.0000000000
     21311       172  PMPE      H12R           30.8654112632      -16.4510654894       -6.9250247473  MEMB      172             0.0000000000
     21312       172  PMPE      H12S           32.6706941478      -16.6411343262       -6.9372003023  MEMB      172             0.0000000000
     21313       172  PMPE      C213           31.7547389913      -17.3627823468       -5.1407402018  MEMB      172             0.0000000000
     21314       172  PMPE      H13R           32.6206378504      -18.0004116328       -4.8524562634  MEMB      172             0.0000000000
     21315       172  PMPE      H13S           30.8304347786      -17.9017669015       -4.8694725269  MEMB      172             0.0000000000
     21316       172  PMPE      C214           31.8384568944      -16.0803763379       -4.3149356087  MEMB      172             0.0000000000
     21317       172  PMPE      H14R           31.2229821128      -15.2842023366       -4.7849475988  MEMB      172             0.0000000000
     21318       172  PMPE      H14S           32.8852984882      -15.7013890500       -4.3106306212  MEMB      172             0.0000000000
     21319       172  PMPE      C215           31.3876708497      -16.3367105152       -2.8744728486  MEMB      172             0.0000000000
     21320       172  PMPE      H15R           32.1349872724      -17.0167958208       -2.4056298087  MEMB      172             0.0000000000
     21321       172  PMPE      H15S           30.3936075699      -16.8423377658       -2.8448598477  MEMB      172             0.0000000000
     21322       172  PMPE      C216           31.3355061334      -15.0537458382       -2.0772059043  MEMB      172             0.0000000000
     21323       172  PMPE      H16R           31.0388376480      -15.2207022866       -1.0241086329  MEMB      172             0.0000000000
     21324       172  PMPE      H16S           32.3503401028      -14.6173636206       -2.0418636896  MEMB      172             0.0000000000
     21325       172  PMPE      H16T           30.6390968569      -14.3251888301       -2.5523268812  MEMB      172             0.0000000000
     21326       172  PMPE      C33            34.1726028777      -13.3320632430      -11.4839901968  MEMB      172             0.0000000000
     21327       172  PMPE      H3X            34.5835035096      -12.4924538781      -12.1169739800  MEMB      172             0.0000000000
     21328       172  PMPE      H3Y            34.3479352518      -14.3215255997      -11.9591756498  MEMB      172             0.0000000000
     21329       172  PMPE      C34            34.9579644573      -13.3132694264      -10.1963112981  MEMB      172             0.0000000000
     21330       172  PMPE      H4X            35.1638974184      -12.2888407744       -9.9189910632  MEMB      172             0.0000000000
     21331       172  PMPE      H4Y            35.9155049931      -13.5060113092      -10.4148933663  MEMB      172             0.0000000000
     21332       172  PMPE      C35            35.1020195868      -14.5082104383       -9.2751818318  MEMB      172             0.0000000000
     21333       172  PMPE      H5X            35.6658181435      -15.3073773376       -9.7548682706  MEMB      172             0.0000000000
     21334       172  PMPE      H5Y            34.0905242298      -14.8184102860       -9.0311653802  MEMB      172             0.0000000000
     21335       172  PMPE      C36            35.9286509329      -14.2933303965       -8.0610060517  MEMB      172             0.0000000000
     21336       172  PMPE      H6X            36.7280088885      -13.4909364080       -8.2174088090  MEMB      172             0.0000000000
     21337       172  PMPE      H6Y            36.4587145851      -15.1712874390       -7.6507472719  MEMB      172             0.0000000000
     21338       172  PMPE      C37            35.0755736169      -14.1305134654       -6.8834398787  MEMB      172             0.0000000000
     21339       172  PMPE      H7X            34.4695838547      -14.8255441167       -6.3517833006  MEMB      172             0.0000000000
     21340       172  PMPE      H7Y            34.0109073225      -13.8820842560       -6.8121020962  MEMB      172             0.0000000000
     21341       172  PMPE      C38            36.0539176941      -13.2724508037       -6.3691797873  MEMB      172             0.0000000000
     21342       172  PMPE      H8X            35.8970190295      -12.1656420455       -6.1582007467  MEMB      172             0.0000000000
     21343       172  PMPE      H8Y            36.5372873070      -12.3219432805       -6.7682613568  MEMB      172             0.0000000000
     21344       172  PMPE      C39            36.5290292179      -14.4021105948       -5.4712414959  MEMB      172             0.0000000000
     21345       172  PMPE      H9X            36.2138337012      -14.1053670975       -4.5086623920  MEMB      172             0.0000000000
     21346       172  PMPE      H9Y            37.5905011148      -14.4233904882       -5.6080623986  MEMB      172             0.0000000000
     21347       172  PMPE      C310           35.8499761184      -15.4528779409       -4.5199573382  MEMB      172             0.0000000000
     21348       172  PMPE      H10X           35.1991400298      -15.9832983684       -5.2044290146  MEMB      172             0.0000000000
     21349       172  PMPE      H10Y           35.2093608660      -15.1957404909       -3.5923819295  MEMB      172             0.0000000000
     21350       172  PMPE      C311           36.9897357052      -16.2324749489       -3.8955556195  MEMB      172             0.0000000000
     21351       172  PMPE      H11X           37.6094730426      -15.8394725514       -3.0669550044  MEMB      172             0.0000000000
     21352       172  PMPE      H11Y           37.7334980443      -16.4267113005       -4.6981132073  MEMB      172             0.0000000000
     21353       172  PMPE      C312           36.3661905759      -17.3108702528       -3.1203186828  MEMB      172             0.0000000000
     21354       172  PMPE      H12X           35.4888708476      -16.9913355884       -2.5170963474  MEMB      172             0.0000000000
     21355       172  PMPE      H12Y           37.1416344791      -17.6367989884       -2.3842943146  MEMB      172             0.0000000000
     21356       172  PMPE      C313           36.0076189093      -18.2873335775       -4.1776907607  MEMB      172             0.0000000000
     21357       172  PMPE      H13X           36.8749738170      -18.3239339060       -4.9142203932  MEMB      172             0.0000000000
     21358       172  PMPE      H13Y           35.0814410995      -18.1492594592       -4.7440075866  MEMB      172             0.0000000000
     21359       172  PMPE      C314           35.9787840555      -19.6053888666       -3.5610268963  MEMB      172             0.0000000000
     21360       172  PMPE      H14X           36.9763108214      -19.4574396992       -3.1114390646  MEMB      172             0.0000000000
     21361       172  PMPE      H14Y           35.9316176799      -20.2573003460       -4.4536189046  MEMB      172             0.0000000000
     21362       172  PMPE      C315           35.0882005148      -20.1635833562       -2.4851211161  MEMB      172             0.0000000000
     21363       172  PMPE      H15X           35.3616990607      -19.7333920956       -1.4960526591  MEMB      172             0.0000000000
     21364       172  PMPE      H15Y           35.2322550741      -21.2707713267       -2.3996055060  MEMB      172             0.0000000000
     21365       172  PMPE      C316           33.6864861975      -19.9359430595       -2.8251846665  MEMB      172             0.0000000000
     21366       172  PMPE      H16X           33.4542611379      -20.2272304243       -3.8537680179  MEMB      172             0.0000000000
     21367       172  PMPE      H16Y           33.6118939424      -18.8435904454       -2.8677647650  MEMB      172             0.0000000000
     21368       172  PMPE      H16Z           33.0578538364      -20.4794828541       -2.0889684446  MEMB      172             0.0000000000
     21369       173  PMPE      N               2.8246597634      -35.8505646084      -20.7516792071  MEMB      173             0.0000000000
     21370       173  PMPE      HN1             2.4515233008      -36.2806337171      -21.6253201554  MEMB      173             0.0000000000
     21371       173  PMPE      HN2             2.0692947271      -35.8871721556      -20.0296058289  MEMB      173             0.0000000000
     21372       173  PMPE      HN3             3.1356272064      -34.8739271140      -20.8868706405  MEMB      173             0.0000000000
     21373       173  PMPE      C12             3.8950217342      -36.7078652673      -20.1355204974  MEMB      173             0.0000000000
     21374       173  PMPE      H12A            4.2716081778      -36.1470761773      -19.2533358862  MEMB      173             0.0000000000
     21375       173  PMPE      H12B            4.7245764784      -36.8480760759      -20.8584756008  MEMB      173             0.0000000000
     21376       173  PMPE      C11             3.2682825217      -38.0339238805      -19.6732443741  MEMB      173             0.0000000000
     21377       173  PMPE      H11A            3.9943663980      -38.5674092394      -19.0120014258  MEMB      173             0.0000000000
     21378       173  PMPE      H11B            3.0462802631      -38.6794986599      -20.5565545302  MEMB      173             0.0000000000
     21379       173  PMPE      P               1.2081288690      -38.9757287371      -18.3516260499  MEMB      173             0.0000000000
     21380       173  PMPE      O13             2.0098516122      -40.1989660638      -18.1790458461  MEMB      173             0.0000000000
     21381       173  PMPE      O14             0.0234463978      -39.0903139959      -19.2191144894  MEMB      173             0.0000000000
     21382       173  PMPE      O11             0.8053668243      -38.3820376040      -16.9482447459  MEMB      173             0.0000000000
     21383       173  PMPE      O12             2.0649614067      -37.7621651934      -18.9668310334  MEMB      173             0.0000000000
     21384       173  PMPE      C1              0.4285365135      -37.0165829782      -16.7470890433  MEMB      173             0.0000000000
     21385       173  PMPE      HA             -0.4134268271      -36.9779509264      -16.0176879918  MEMB      173             0.0000000000
     21386       173  PMPE      HB              0.0584106931      -36.5258814536      -17.6722039160  MEMB      173             0.0000000000
     21387       173  PMPE      C2              1.5647359532      -36.1231301025      -16.1982716769  MEMB      173             0.0000000000
     21388       173  PMPE      HS              1.7374298294      -35.3176007955      -16.9556016033  MEMB      173             0.0000000000
     21389       173  PMPE      O21             2.7668018840      -36.8681272376      -16.0269430422  MEMB      173             0.0000000000
     21390       173  PMPE      C21             3.8590946997      -36.1831043032      -16.0646871179  MEMB      173             0.0000000000
     21391       173  PMPE      O22             3.9745798594      -34.9737336387      -16.1753333281  MEMB      173             0.0000000000
     21392       173  PMPE      C22             4.9916128779      -37.1739237358      -16.2270959438  MEMB      173             0.0000000000
     21393       173  PMPE      H2R             5.7528249169      -36.9389053870      -15.5634513266  MEMB      173             0.0000000000
     21394       173  PMPE      H2S             5.5118111863      -36.9937497820      -17.1847389905  MEMB      173             0.0000000000
     21395       173  PMPE      C3              1.1320214710      -35.5011826618      -14.8558727637  MEMB      173             0.0000000000
     21396       173  PMPE      HX              0.2341142606      -34.8610765020      -14.9857409343  MEMB      173             0.0000000000
     21397       173  PMPE      HY              1.9424551268      -34.8350714611      -14.5971753922  MEMB      173             0.0000000000
     21398       173  PMPE      O31             0.8549099830      -36.4651001473      -13.8309415233  MEMB      173             0.0000000000
     21399       173  PMPE      C31             1.7507315862      -36.6713059594      -12.8766138287  MEMB      173             0.0000000000
     21400       173  PMPE      O32             2.7661033449      -36.0500224129      -12.6547896313  MEMB      173             0.0000000000
     21401       173  PMPE      C32             1.3690012074      -37.9119453667      -12.1124249216  MEMB      173             0.0000000000
     21402       173  PMPE      H2X             0.4121578008      -37.7460853978      -11.5843067681  MEMB      173             0.0000000000
     21403       173  PMPE      H2Y             2.1814320959      -38.0606194120      -11.3726338933  MEMB      173             0.0000000000
     21404       173  PMPE      C23             4.7708232681      -38.6397507495      -15.7757727349  MEMB      173             0.0000000000
     21405       173  PMPE      H3R             5.6396934546      -39.1776230606      -16.1935828392  MEMB      173             0.0000000000
     21406       173  PMPE      H3S             3.8585053252      -38.9858665164      -16.2844386185  MEMB      173             0.0000000000
     21407       173  PMPE      C24             4.5665663036      -38.9908073649      -14.2608219500  MEMB      173             0.0000000000
     21408       173  PMPE      H4R             4.2534708838      -40.0448870181      -14.1936652916  MEMB      173             0.0000000000
     21409       173  PMPE      H4S             3.8637027165      -38.2526047051      -13.8087746376  MEMB      173             0.0000000000
     21410       173  PMPE      C25             5.7731276099      -38.9549152401      -13.3596239410  MEMB      173             0.0000000000
     21411       173  PMPE      H5R             5.6595490680      -37.8909912008      -13.1061839562  MEMB      173             0.0000000000
     21412       173  PMPE      H5S             6.6336050806      -39.2465483281      -13.9200083964  MEMB      173             0.0000000000
     21413       173  PMPE      C26             6.1104525174      -39.4983189150      -11.9763486769  MEMB      173             0.0000000000
     21414       173  PMPE      H6R             7.1965125081      -39.2824121387      -11.7338415226  MEMB      173             0.0000000000
     21415       173  PMPE      H6S             5.9912295973      -40.5878514329      -11.9766771537  MEMB      173             0.0000000000
     21416       173  PMPE      C27             5.2383334233      -38.6702833489      -11.0825728815  MEMB      173             0.0000000000
     21417       173  PMPE      H7R             4.2166974370      -38.7857868618      -11.4832188450  MEMB      173             0.0000000000
     21418       173  PMPE      H7S             5.5130840792      -37.6157757621      -11.1296244811  MEMB      173             0.0000000000
     21419       173  PMPE      C28             5.3967865407      -38.7577081165       -9.6121081993  MEMB      173             0.0000000000
     21420       173  PMPE      H8R             4.5441569133      -38.1586702511       -9.2191835884  MEMB      173             0.0000000000
     21421       173  PMPE      H8S             6.3656465365      -38.2922951389       -9.3170204950  MEMB      173             0.0000000000
     21422       173  PMPE      C29             5.4352476975      -40.1768731944       -9.2158893742  MEMB      173             0.0000000000
     21423       173  PMPE      H9R             6.2455418507      -40.8134292137       -9.6211418240  MEMB      173             0.0000000000
     21424       173  PMPE      C217            4.1520104785      -40.8295320522       -8.7909063417  MEMB      173             0.0000000000
     21425       173  PMPE      H17R            4.1864274759      -41.8778965653       -8.8816401008  MEMB      173             0.0000000000
     21426       173  PMPE      H17S            3.3010333472      -40.2227738979       -9.0494254687  MEMB      173             0.0000000000
     21427       173  PMPE      C210            5.1886453766      -40.3617382590       -7.7528491609  MEMB      173             0.0000000000
     21428       173  PMPE      H10R            5.7565690440      -41.1938959042       -7.3455013076  MEMB      173             0.0000000000
     21429       173  PMPE      C211            4.5724627140      -39.3330463280       -6.7925349848  MEMB      173             0.0000000000
     21430       173  PMPE      H11R            3.5372096378      -39.6875375958       -6.5945475744  MEMB      173             0.0000000000
     21431       173  PMPE      H11S            4.5367538625      -38.3246761666       -7.2455102957  MEMB      173             0.0000000000
     21432       173  PMPE      C212            5.2567771625      -39.1248455730       -5.4097610930  MEMB      173             0.0000000000
     21433       173  PMPE      H12R            4.6449859791      -38.3836110172       -4.8568217448  MEMB      173             0.0000000000
     21434       173  PMPE      H12S            6.2921318036      -38.7516719810       -5.5355690173  MEMB      173             0.0000000000
     21435       173  PMPE      C213            5.3282630083      -40.3486986978       -4.5294694630  MEMB      173             0.0000000000
     21436       173  PMPE      H13R            6.0465096897      -40.9974723276       -5.0811720041  MEMB      173             0.0000000000
     21437       173  PMPE      H13S            4.3221194378      -40.8303246552       -4.5324572466  MEMB      173             0.0000000000
     21438       173  PMPE      C214            5.7781692702      -40.2303407569       -3.0437855144  MEMB      173             0.0000000000
     21439       173  PMPE      H14R            6.8158998910      -39.8650177890       -2.9185885815  MEMB      173             0.0000000000
     21440       173  PMPE      H14S            5.7722185655      -41.2124578011       -2.5181102079  MEMB      173             0.0000000000
     21441       173  PMPE      C215            4.8468269727      -39.3754756845       -2.2283601488  MEMB      173             0.0000000000
     21442       173  PMPE      H15R            3.8406646517      -39.8338475092       -2.1221191824  MEMB      173             0.0000000000
     21443       173  PMPE      H15S            4.7059831299      -38.4132593377       -2.7693156140  MEMB      173             0.0000000000
     21444       173  PMPE      C216            5.4003571462      -39.0741995008       -0.8598699763  MEMB      173             0.0000000000
     21445       173  PMPE      H16R            4.6825601020      -38.3307632312       -0.4884194744  MEMB      173             0.0000000000
     21446       173  PMPE      H16S            5.3225033805      -39.8230951743       -0.0614752909  MEMB      173             0.0000000000
     21447       173  PMPE      H16T            6.4247707494      -38.6197114428       -0.8991685922  MEMB      173             0.0000000000
     21448       173  PMPE      C33             1.2752302750      -39.0952432390      -13.0941319799  MEMB      173             0.0000000000
     21449       173  PMPE      H3X             2.1657836015      -39.1077801917      -13.7422699976  MEMB      173             0.0000000000
     21450       173  PMPE      H3Y             0.4213649664      -38.9503783145      -13.7925239651  MEMB      173             0.0000000000
     21451       173  PMPE      C34             1.1760750944      -40.4734004557      -12.4374604535  MEMB      173             0.0000000000
     21452       173  PMPE      H4X             2.0706357942      -40.6864877308      -11.8149986199  MEMB      173             0.0000000000
     21453       173  PMPE      H4Y             1.0847363880      -41.2183252973      -13.2587598712  MEMB      173             0.0000000000
     21454       173  PMPE      C35            -0.0394220010      -40.6406490796      -11.5599744140  MEMB      173             0.0000000000
     21455       173  PMPE      H5X            -0.4753445078      -41.6588884820      -11.7054322911  MEMB      173             0.0000000000
     21456       173  PMPE      H5Y            -0.7510993869      -39.8941564920      -11.9489018934  MEMB      173             0.0000000000
     21457       173  PMPE      C36             0.3550979169      -40.4591041125      -10.0870977781  MEMB      173             0.0000000000
     21458       173  PMPE      H6X             0.6998512301      -39.4141898119       -9.9370986961  MEMB      173             0.0000000000
     21459       173  PMPE      H6Y             1.0768430453      -41.2584103113       -9.8548649294  MEMB      173             0.0000000000
     21460       173  PMPE      C37            -0.7616547827      -40.5974046074       -9.1186244206  MEMB      173             0.0000000000
     21461       173  PMPE      H7X            -1.2387107785      -41.5760911319       -9.3184215506  MEMB      173             0.0000000000
     21462       173  PMPE      H7Y            -1.3470262039      -39.7267379069       -9.4766237448  MEMB      173             0.0000000000
     21463       173  PMPE      C38            -0.6509625483      -40.6802873896       -7.6228268287  MEMB      173             0.0000000000
     21464       173  PMPE      H8X            -0.0475041802      -41.5879505062       -7.4454266338  MEMB      173             0.0000000000
     21465       173  PMPE      H8Y            -1.6869322926      -40.8800692278       -7.2209088881  MEMB      173             0.0000000000
     21466       173  PMPE      C39            -0.1317733964      -39.4547736188       -6.9670084215  MEMB      173             0.0000000000
     21467       173  PMPE      H9X            -0.7271303845      -38.5315349868       -7.1488751459  MEMB      173             0.0000000000
     21468       173  PMPE      H9Y             0.8719264012      -39.3213093887       -7.4135096100  MEMB      173             0.0000000000
     21469       173  PMPE      C310           -0.0777313917      -39.6719244410       -5.4771845872  MEMB      173             0.0000000000
     21470       173  PMPE      H10X            0.2029463371      -40.7291319016       -5.2617053518  MEMB      173             0.0000000000
     21471       173  PMPE      H10Y           -1.0761769140      -39.4866578774       -5.0149206694  MEMB      173             0.0000000000
     21472       173  PMPE      C311            0.9901303280      -38.7431110227       -4.9366931818  MEMB      173             0.0000000000
     21473       173  PMPE      H11X            1.8807158529      -38.7816841006       -5.6055572968  MEMB      173             0.0000000000
     21474       173  PMPE      H11Y            1.2838115025      -39.1668400272       -3.9588297802  MEMB      173             0.0000000000
     21475       173  PMPE      C312            0.5080274149      -37.2879811833       -4.8603502401  MEMB      173             0.0000000000
     21476       173  PMPE      H12X           -0.4993129007      -37.2492148082       -4.3872003409  MEMB      173             0.0000000000
     21477       173  PMPE      H12Y            0.4032982881      -36.8848847922       -5.8923489689  MEMB      173             0.0000000000
     21478       173  PMPE      C313            1.4466400676      -36.3680736651       -4.0785723861  MEMB      173             0.0000000000
     21479       173  PMPE      H13X            1.1697170622      -35.3112474866       -4.2907533328  MEMB      173             0.0000000000
     21480       173  PMPE      H13Y            2.5086120176      -36.5229311285       -4.3782436895  MEMB      173             0.0000000000
     21481       173  PMPE      C314            1.3201538451      -36.6005990644       -2.5774899586  MEMB      173             0.0000000000
     21482       173  PMPE      H14X            1.5076708082      -37.6853920869       -2.3885788447  MEMB      173             0.0000000000
     21483       173  PMPE      H14Y            0.2920312366      -36.3538667994       -2.2494441603  MEMB      173             0.0000000000
     21484       173  PMPE      C315            2.3361736446      -35.7805147768       -1.7970350218  MEMB      173             0.0000000000
     21485       173  PMPE      H15X            2.2294731999      -34.6870899997       -1.8456539281  MEMB      173             0.0000000000
     21486       173  PMPE      H15Y            3.2732349769      -36.0868716668       -2.2543591084  MEMB      173             0.0000000000
     21487       173  PMPE      C316            2.3688203585      -36.1028718808       -0.3529780837  MEMB      173             0.0000000000
     21488       173  PMPE      H16X            2.9475229384      -35.4713747489        0.3358705572  MEMB      173             0.0000000000
     21489       173  PMPE      H16Y            2.7189914441      -37.1653892946       -0.2547372277  MEMB      173             0.0000000000
     21490       173  PMPE      H16Z            1.3388039941      -35.9229776464       -0.0093852951  MEMB      173             0.0000000000
     21491       174  POPE      N              33.4823328236      -10.4443169812      -19.7832209268  MEMB      174             0.0000000000
     21492       174  POPE      HN1            33.3316284577      -11.0912602752      -18.9741972579  MEMB      174             0.0000000000
     21493       174  POPE      HN2            33.2132999489       -9.4962878206      -19.4550734889  MEMB      174             0.0000000000
     21494       174  POPE      HN3            32.8275154238      -10.7082045097      -20.5605667626  MEMB      174             0.0000000000
     21495       174  POPE      C12            34.9257055558      -10.4032686390      -20.2467664520  MEMB      174             0.0000000000
     21496       174  POPE      H12A           35.0236319646       -9.6176682728      -21.0265390302  MEMB      174             0.0000000000
     21497       174  POPE      H12B           35.2013897114      -11.3754518246      -20.7026670080  MEMB      174             0.0000000000
     21498       174  POPE      C11            35.8581942257      -10.0906026407      -19.0760025844  MEMB      174             0.0000000000
     21499       174  POPE      H11A           35.7138391989      -10.8079076534      -18.2397009322  MEMB      174             0.0000000000
     21500       174  POPE      H11B           35.5869225945       -9.0681649539      -18.6911070806  MEMB      174             0.0000000000
     21501       174  POPE      P              38.2684351397       -9.4110819893      -18.6821675208  MEMB      174             0.0000000000
     21502       174  POPE      O13            37.7059368098       -8.0517197209      -18.6689323522  MEMB      174             0.0000000000
     21503       174  POPE      O14            39.6771393735       -9.5436703034      -19.1213955437  MEMB      174             0.0000000000
     21504       174  POPE      O11            38.0158926000      -10.1120282948      -17.2740702238  MEMB      174             0.0000000000
     21505       174  POPE      O12            37.2161405911      -10.2038219778      -19.5375078728  MEMB      174             0.0000000000
     21506       174  POPE      C1             39.0931737396      -10.3231923231      -16.3973656488  MEMB      174             0.0000000000
     21507       174  POPE      HA             39.7502043762       -9.4971151023      -16.5401750622  MEMB      174             0.0000000000
     21508       174  POPE      HB             39.4803590937      -11.3319779377      -16.5689341430  MEMB      174             0.0000000000
     21509       174  POPE      C2             38.8489088573      -10.0068489465      -14.9320006490  MEMB      174             0.0000000000
     21510       174  POPE      HS             39.6916947753      -10.3544942546      -14.2575415503  MEMB      174             0.0000000000
     21511       174  POPE      O21            37.6874539427      -10.5830420069      -14.4801044530  MEMB      174             0.0000000000
     21512       174  POPE      C21            37.7127685012      -11.8060272594      -14.5350462894  MEMB      174             0.0000000000
     21513       174  POPE      O22            38.5492407913      -12.5774111555      -14.9276907870  MEMB      174             0.0000000000
     21514       174  POPE      C22            36.5100486874      -12.2228339139      -13.9780371013  MEMB      174             0.0000000000
     21515       174  POPE      H2R            36.1240482702      -12.5666085989      -14.9613967011  MEMB      174             0.0000000000
     21516       174  POPE      H2S            35.8197628910      -11.4492836791      -13.6169487536  MEMB      174             0.0000000000
     21517       174  POPE      C3             38.6403253868       -8.5519324031      -14.7689679677  MEMB      174             0.0000000000
     21518       174  POPE      HX             37.8340265101       -8.2328318305      -15.4601821916  MEMB      174             0.0000000000
     21519       174  POPE      HY             39.4321769289       -7.8684471398      -14.9678741536  MEMB      174             0.0000000000
     21520       174  POPE      O31            38.3027640255       -8.4379678487      -13.4414148858  MEMB      174             0.0000000000
     21521       174  POPE      C31            37.9176991323       -7.3140261723      -13.1438678318  MEMB      174             0.0000000000
     21522       174  POPE      O32            38.0584051003       -6.2673207187      -13.7240352049  MEMB      174             0.0000000000
     21523       174  POPE      C32            37.2500971671       -7.6715927844      -11.9265108776  MEMB      174             0.0000000000
     21524       174  POPE      H2X            36.7770764960       -6.8801205747      -11.6453059269  MEMB      174             0.0000000000
     21525       174  POPE      H2Y            37.8786910208       -7.6805564686      -11.0680968438  MEMB      174             0.0000000000
     21526       174  POPE      C23            36.9329304546      -13.1610233101      -12.8519499480  MEMB      174             0.0000000000
     21527       174  POPE      H3R            37.6449422832      -13.9704914129      -12.9742747086  MEMB      174             0.0000000000
     21528       174  POPE      H3S            36.0414335742      -13.7221364947      -12.6328661211  MEMB      174             0.0000000000
     21529       174  POPE      C24            37.3868321153      -12.4356262037      -11.6310354512  MEMB      174             0.0000000000
     21530       174  POPE      H4R            37.5004026691      -13.2294078814      -10.8419187813  MEMB      174             0.0000000000
     21531       174  POPE      H4S            36.6662940722      -11.6228981043      -11.4093240233  MEMB      174             0.0000000000
     21532       174  POPE      C25            38.8080407111      -12.1237292223      -11.5149776443  MEMB      174             0.0000000000
     21533       174  POPE      H5R            39.2645725214      -11.9032502346      -12.4811413088  MEMB      174             0.0000000000
     21534       174  POPE      H5S            39.2711598698      -13.0125899955      -11.1127948395  MEMB      174             0.0000000000
     21535       174  POPE      C26            39.1782675761      -11.3715724066      -10.2745278015  MEMB      174             0.0000000000
     21536       174  POPE      H6R            38.8398534450      -10.3485839336      -10.5127447384  MEMB      174             0.0000000000
     21537       174  POPE      H6S            40.2830166766      -11.5212139365      -10.2394770896  MEMB      174             0.0000000000
     21538       174  POPE      C27            38.5521197945      -11.9032098623       -8.9606166768  MEMB      174             0.0000000000
     21539       174  POPE      H7R            38.7512602877      -12.9875622852       -8.8118911173  MEMB      174             0.0000000000
     21540       174  POPE      H7S            37.4475299547      -11.7696921054       -9.0567583061  MEMB      174             0.0000000000
     21541       174  POPE      C28            38.9749461540      -11.1641264788       -7.6922405134  MEMB      174             0.0000000000
     21542       174  POPE      H8R            39.9950799009      -11.3542929725       -7.3322741204  MEMB      174             0.0000000000
     21543       174  POPE      H8S            38.2653798851      -11.3645144153       -6.8683732402  MEMB      174             0.0000000000
     21544       174  POPE      C29            38.8961177591       -9.7489509940       -8.0167831784  MEMB      174             0.0000000000
     21545       174  POPE      H91            39.6946531188       -9.2763316310       -8.6101619242  MEMB      174             0.0000000000
     21546       174  POPE      C210           37.9755977074       -8.9760277286       -7.5495292662  MEMB      174             0.0000000000
     21547       174  POPE      H101           38.2244859097       -8.0113288601       -7.9343223325  MEMB      174             0.0000000000
     21548       174  POPE      C211           36.7757882846       -9.1562817551       -6.6123047567  MEMB      174             0.0000000000
     21549       174  POPE      H11R           36.4073461751      -10.1755031964       -6.6060839555  MEMB      174             0.0000000000
     21550       174  POPE      H11S           35.8622718003       -8.5780097729       -6.9218247419  MEMB      174             0.0000000000
     21551       174  POPE      C212           37.1534325417       -8.6138498068       -5.2107409807  MEMB      174             0.0000000000
     21552       174  POPE      H12R           37.3917778692       -7.5345856381       -5.2372127706  MEMB      174             0.0000000000
     21553       174  POPE      H12S           38.0817138702       -9.1269380260       -4.8797163876  MEMB      174             0.0000000000
     21554       174  POPE      C213           36.0722172019       -8.7981622135       -4.1405353219  MEMB      174             0.0000000000
     21555       174  POPE      H13R           36.4759542129       -8.5576394928       -3.1495368895  MEMB      174             0.0000000000
     21556       174  POPE      H13S           35.8293379562       -9.8524046946       -4.0932028438  MEMB      174             0.0000000000
     21557       174  POPE      C214           34.7245659933       -8.1255730404       -4.3826151768  MEMB      174             0.0000000000
     21558       174  POPE      H14R           34.3662835442       -8.4661406836       -5.3793382959  MEMB      174             0.0000000000
     21559       174  POPE      H14S           34.8251586469       -7.0305242735       -4.4597052132  MEMB      174             0.0000000000
     21560       174  POPE      C215           33.6726663800       -8.4949101040       -3.3145679315  MEMB      174             0.0000000000
     21561       174  POPE      H15R           32.7093009788       -8.0969930624       -3.6735566814  MEMB      174             0.0000000000
     21562       174  POPE      H15S           33.7713642089       -7.9447187901       -2.3693844660  MEMB      174             0.0000000000
     21563       174  POPE      C216           33.5818955563      -10.0095657119       -3.0222092460  MEMB      174             0.0000000000
     21564       174  POPE      H16R           34.4145098701      -10.4539558813       -2.4607948481  MEMB      174             0.0000000000
     21565       174  POPE      H16S           33.4590851847      -10.4883526146       -3.9966735982  MEMB      174             0.0000000000
     21566       174  POPE      C217           32.3273326583      -10.4308587173       -2.3182495785  MEMB      174             0.0000000000
     21567       174  POPE      H17R           31.7769938740       -9.7234596812       -2.8699625549  MEMB      174             0.0000000000
     21568       174  POPE      H17S           32.2719175448      -10.0879357590       -1.2781806586  MEMB      174             0.0000000000
     21569       174  POPE      C218           31.8279824777      -11.8567604318       -2.5388505530  MEMB      174             0.0000000000
     21570       174  POPE      H18R           30.7593428302      -11.9699704825       -2.3821792497  MEMB      174             0.0000000000
     21571       174  POPE      H18S           32.3670275974      -12.5005104500       -1.8207788921  MEMB      174             0.0000000000
     21572       174  POPE      H18T           31.9195744323      -12.2577117405       -3.5619463369  MEMB      174             0.0000000000
     21573       174  POPE      C33            35.8935439272       -8.2781022737      -12.1497083575  MEMB      174             0.0000000000
     21574       174  POPE      H3X            36.1326940357       -9.3411789725      -12.1557667040  MEMB      174             0.0000000000
     21575       174  POPE      H3Y            35.4898413640       -7.9435226875      -13.1484027681  MEMB      174             0.0000000000
     21576       174  POPE      C34            34.7946956388       -7.9124937369      -11.1589530607  MEMB      174             0.0000000000
     21577       174  POPE      H4X            34.0058129365       -8.5033864751      -11.6616985019  MEMB      174             0.0000000000
     21578       174  POPE      H4Y            34.4843605234       -6.8310603219      -11.1314946565  MEMB      174             0.0000000000
     21579       174  POPE      C35            34.7813530506       -8.5711950334       -9.7959507237  MEMB      174             0.0000000000
     21580       174  POPE      H5X            34.0991230568       -8.0847758288       -9.0905805864  MEMB      174             0.0000000000
     21581       174  POPE      H5Y            35.6210336256       -8.5005852234       -9.1056725506  MEMB      174             0.0000000000
     21582       174  POPE      C36            34.7076301337      -10.0396642871       -9.8689804831  MEMB      174             0.0000000000
     21583       174  POPE      H6X            35.7202203696      -10.3956515598       -9.5512791160  MEMB      174             0.0000000000
     21584       174  POPE      H6Y            34.4125485184      -10.4719751225      -10.8418505797  MEMB      174             0.0000000000
     21585       174  POPE      C37            33.7260513309      -10.3140205988       -8.8044538775  MEMB      174             0.0000000000
     21586       174  POPE      H7X            32.7743597331      -10.0809742005       -9.1063763497  MEMB      174             0.0000000000
     21587       174  POPE      H7Y            34.1322951098       -9.8219480499       -7.8875434721  MEMB      174             0.0000000000
     21588       174  POPE      C38            33.1702288110      -11.6129764935       -8.5120225338  MEMB      174             0.0000000000
     21589       174  POPE      H8X            33.2351415716      -12.0415837013       -9.4907890088  MEMB      174             0.0000000000
     21590       174  POPE      H8Y            32.2212297501      -12.0040634308       -8.1259305868  MEMB      174             0.0000000000
     21591       174  POPE      C39            34.1419962955      -11.8179021420       -7.4870801008  MEMB      174             0.0000000000
     21592       174  POPE      H9X            35.1699480789      -11.6152075600       -7.8996746724  MEMB      174             0.0000000000
     21593       174  POPE      H9Y            34.0330995764      -12.7301697233       -8.0667566199  MEMB      174             0.0000000000
     21594       174  POPE      C310           33.8321824324      -11.8280733939       -5.7940569201  MEMB      174             0.0000000000
     21595       174  POPE      H10X           32.7545128758      -12.1326511965       -5.7735770938  MEMB      174             0.0000000000
     21596       174  POPE      H10Y           34.0644574897      -10.7639193826       -5.8513843636  MEMB      174             0.0000000000
     21597       174  POPE      C311           34.8279605637      -12.3704140868       -4.3659237633  MEMB      174             0.0000000000
     21598       174  POPE      H11X           34.4277380683      -13.4314285055       -4.5521770266  MEMB      174             0.0000000000
     21599       174  POPE      H11Y           34.5010926789      -12.5876147012       -3.3426690822  MEMB      174             0.0000000000
     21600       174  POPE      C312           36.6616136931      -12.0723248977       -4.1730225219  MEMB      174             0.0000000000
     21601       174  POPE      H12X           37.0121675437      -11.1056292697       -4.3575794211  MEMB      174             0.0000000000
     21602       174  POPE      H12Y           37.4036971796      -12.2103720063       -5.0423020467  MEMB      174             0.0000000000
     21603       174  POPE      C313           37.7968753855      -13.0154514208       -3.5548472133  MEMB      174             0.0000000000
     21604       174  POPE      H13X           38.7590776149      -13.1754409344       -4.1391603751  MEMB      174             0.0000000000
     21605       174  POPE      H13Y           37.7411642452      -14.1002877959       -3.5066213598  MEMB      174             0.0000000000
     21606       174  POPE      C314           37.3444827252      -12.8483214939       -2.1998949671  MEMB      174             0.0000000000
     21607       174  POPE      H14X           36.2499125399      -13.0991964756       -2.1349421491  MEMB      174             0.0000000000
     21608       174  POPE      H14Y           37.4671741894      -11.7521879345       -2.1500953793  MEMB      174             0.0000000000
     21609       174  POPE      C315           38.1466394966      -13.6668064564       -1.2888782787  MEMB      174             0.0000000000
     21610       174  POPE      H15X           37.7465566767      -14.7054256998       -1.1748702592  MEMB      174             0.0000000000
     21611       174  POPE      H15Y           38.0699231392      -13.0908492285       -0.3427645255  MEMB      174             0.0000000000
     21612       174  POPE      C316           39.5656404422      -13.7200746351       -1.8131577830  MEMB      174             0.0000000000
     21613       174  POPE      H16X           39.7724085696      -14.4804818701       -2.5936039490  MEMB      174             0.0000000000
     21614       174  POPE      H16Y           40.1000966566      -14.1152495173       -0.9760628558  MEMB      174             0.0000000000
     21615       174  POPE      H16Z           39.9197238428      -12.7119367698       -2.1478308785  MEMB      174             0.0000000000
     21616       175  POPE      N             -34.0592106208      -21.9141512613      -18.4721827993  MEMB      175             0.0000000000
     21617       175  POPE      HN1           -34.7020221396      -22.0095327749      -19.2828512113  MEMB      175             0.0000000000
     21618       175  POPE      HN2           -34.5699275465      -21.5703118428      -17.6315773521  MEMB      175             0.0000000000
     21619       175  POPE      HN3           -33.2717305061      -21.2919095777      -18.7550388450  MEMB      175             0.0000000000
     21620       175  POPE      C12           -33.4279344570      -23.2054582810      -18.0631082746  MEMB      175             0.0000000000
     21621       175  POPE      H12A          -34.2308755351      -23.8635028993      -17.6748789597  MEMB      175             0.0000000000
     21622       175  POPE      H12B          -32.7356441838      -22.9501401609      -17.2334507204  MEMB      175             0.0000000000
     21623       175  POPE      C11           -32.6115430402      -23.8483027904      -19.2007673766  MEMB      175             0.0000000000
     21624       175  POPE      H11A          -33.3253465829      -24.2743911781      -19.9443533824  MEMB      175             0.0000000000
     21625       175  POPE      H11B          -32.0530250174      -24.7132467003      -18.7664952652  MEMB      175             0.0000000000
     21626       175  POPE      P             -30.2438323853      -22.6375477065      -19.3024393504  MEMB      175             0.0000000000
     21627       175  POPE      O13           -29.4904756622      -21.8638533274      -20.3140112311  MEMB      175             0.0000000000
     21628       175  POPE      O14           -29.6886517311      -23.8798296374      -18.7550679950  MEMB      175             0.0000000000
     21629       175  POPE      O11           -30.6683967784      -21.7300217260      -18.0841241127  MEMB      175             0.0000000000
     21630       175  POPE      O12           -31.7206593610      -22.9223528807      -19.8481378489  MEMB      175             0.0000000000
     21631       175  POPE      C1            -30.8662703561      -20.3328572925      -18.2595915640  MEMB      175             0.0000000000
     21632       175  POPE      HA            -31.8286590833      -20.1785653369      -18.7785815134  MEMB      175             0.0000000000
     21633       175  POPE      HB            -30.0532582835      -19.8802122603      -18.8809066549  MEMB      175             0.0000000000
     21634       175  POPE      C2            -30.8983236288      -19.5636909569      -16.9050566298  MEMB      175             0.0000000000
     21635       175  POPE      HS            -30.5155206545      -18.5299179257      -17.0879032169  MEMB      175             0.0000000000
     21636       175  POPE      O21           -30.1401486711      -20.1922393229      -15.8771145759  MEMB      175             0.0000000000
     21637       175  POPE      C21           -28.8564659129      -20.3511580597      -16.0278583275  MEMB      175             0.0000000000
     21638       175  POPE      O22           -28.1830584480      -20.0522862668      -17.0027355377  MEMB      175             0.0000000000
     21639       175  POPE      C22           -28.2793605653      -20.9037386163      -14.7162046747  MEMB      175             0.0000000000
     21640       175  POPE      H2R           -27.2457763011      -20.5083300080      -14.6301735867  MEMB      175             0.0000000000
     21641       175  POPE      H2S           -28.2537796682      -22.0073249006      -14.7830158069  MEMB      175             0.0000000000
     21642       175  POPE      C3            -32.3471698486      -19.4006926485      -16.3481481883  MEMB      175             0.0000000000
     21643       175  POPE      HX            -33.0703964926      -19.9884716527      -16.9482624826  MEMB      175             0.0000000000
     21644       175  POPE      HY            -32.5831188461      -18.3296382520      -16.5072012659  MEMB      175             0.0000000000
     21645       175  POPE      O31           -32.4556420981      -19.6519115566      -14.9304413200  MEMB      175             0.0000000000
     21646       175  POPE      C31           -33.2066254477      -20.6926059185      -14.5584444258  MEMB      175             0.0000000000
     21647       175  POPE      O32           -33.8745940890      -21.3668661110      -15.3214558044  MEMB      175             0.0000000000
     21648       175  POPE      C32           -33.3762635682      -20.6817776443      -13.0740817174  MEMB      175             0.0000000000
     21649       175  POPE      H2X           -34.3823830839      -20.1980552208      -12.9630551660  MEMB      175             0.0000000000
     21650       175  POPE      H2Y           -32.5379798224      -20.1378902928      -12.5751179571  MEMB      175             0.0000000000
     21651       175  POPE      C23           -29.0428051961      -20.5088011223      -13.4293403530  MEMB      175             0.0000000000
     21652       175  POPE      H3R           -30.0531744692      -20.9742975257      -13.4152222034  MEMB      175             0.0000000000
     21653       175  POPE      H3S           -29.1412515401      -19.4147548757      -13.3825641494  MEMB      175             0.0000000000
     21654       175  POPE      C24           -28.1985456062      -20.8514307686      -12.2087975453  MEMB      175             0.0000000000
     21655       175  POPE      H4R           -27.2310111615      -20.3086539200      -12.3471730599  MEMB      175             0.0000000000
     21656       175  POPE      H4S           -27.9922877234      -21.9367881662      -12.2644161982  MEMB      175             0.0000000000
     21657       175  POPE      C25           -28.7628439873      -20.4339466148      -10.8373311254  MEMB      175             0.0000000000
     21658       175  POPE      H5R           -28.8257600466      -19.3452636206      -10.8091103326  MEMB      175             0.0000000000
     21659       175  POPE      H5S           -28.0309699095      -20.7238503308      -10.0552255378  MEMB      175             0.0000000000
     21660       175  POPE      C26           -30.1482673508      -20.9768424644      -10.4684337599  MEMB      175             0.0000000000
     21661       175  POPE      H6R           -30.0485944924      -22.0770072397      -10.3891877382  MEMB      175             0.0000000000
     21662       175  POPE      H6S           -30.8730363422      -20.7383168870      -11.2768914014  MEMB      175             0.0000000000
     21663       175  POPE      C27           -30.7113428362      -20.4689521348       -9.1252734229  MEMB      175             0.0000000000
     21664       175  POPE      H7R           -30.6077564396      -19.3608090661       -9.0657557261  MEMB      175             0.0000000000
     21665       175  POPE      H7S           -30.1376063036      -20.9178087362       -8.2849858060  MEMB      175             0.0000000000
     21666       175  POPE      C28           -32.2098747073      -20.7889493042       -8.9462110138  MEMB      175             0.0000000000
     21667       175  POPE      H8R           -32.6964142878      -20.4639229199       -9.8878549202  MEMB      175             0.0000000000
     21668       175  POPE      H8S           -32.6104422309      -20.1484481314       -8.1283126824  MEMB      175             0.0000000000
     21669       175  POPE      C29           -32.5515207999      -22.2373996663       -8.7062181033  MEMB      175             0.0000000000
     21670       175  POPE      H91           -32.3344209234      -22.9189133359       -9.5363041578  MEMB      175             0.0000000000
     21671       175  POPE      C210          -33.1837651245      -22.7641826723       -7.6496876748  MEMB      175             0.0000000000
     21672       175  POPE      H101          -33.3499837142      -23.8482576309       -7.6287347533  MEMB      175             0.0000000000
     21673       175  POPE      C211          -33.6979168027      -22.0303467926       -6.4528796697  MEMB      175             0.0000000000
     21674       175  POPE      H11R          -34.5432519819      -22.5927049643       -6.0040455724  MEMB      175             0.0000000000
     21675       175  POPE      H11S          -34.0677154155      -21.0091927119       -6.7032669566  MEMB      175             0.0000000000
     21676       175  POPE      C212          -32.5407715390      -21.9831879834       -5.4784800139  MEMB      175             0.0000000000
     21677       175  POPE      H12R          -31.5901634491      -21.6391934198       -5.9697987316  MEMB      175             0.0000000000
     21678       175  POPE      H12S          -32.3636472175      -22.9708781706       -5.0047789799  MEMB      175             0.0000000000
     21679       175  POPE      C213          -32.7435617356      -20.9861831062       -4.4039939927  MEMB      175             0.0000000000
     21680       175  POPE      H13R          -33.6613020097      -20.9781177757       -3.7851819702  MEMB      175             0.0000000000
     21681       175  POPE      H13S          -32.7403717869      -20.0318779969       -4.9328934168  MEMB      175             0.0000000000
     21682       175  POPE      C214          -31.6143150174      -21.1626828434       -3.4963841753  MEMB      175             0.0000000000
     21683       175  POPE      H14R          -30.5841913418      -20.9818223646       -3.9226993956  MEMB      175             0.0000000000
     21684       175  POPE      H14S          -31.6275354707      -22.1438292214       -2.9582554917  MEMB      175             0.0000000000
     21685       175  POPE      C215          -31.8176597330      -20.1703144688       -2.5007393873  MEMB      175             0.0000000000
     21686       175  POPE      H15R          -32.7479182432      -19.6039346404       -2.2143540438  MEMB      175             0.0000000000
     21687       175  POPE      H15S          -31.1882069748      -19.4480518823       -2.8589740658  MEMB      175             0.0000000000
     21688       175  POPE      C216          -30.9578743453      -20.7663761396       -1.5350850251  MEMB      175             0.0000000000
     21689       175  POPE      H16R          -31.6353082400      -21.4920471871       -1.0413645880  MEMB      175             0.0000000000
     21690       175  POPE      H16S          -31.1980381420      -19.8965226581       -1.0285952438  MEMB      175             0.0000000000
     21691       175  POPE      C217          -29.3941418788      -20.8601312868       -1.8077167322  MEMB      175             0.0000000000
     21692       175  POPE      H17R          -28.8185330427      -19.9410057884       -2.0860155484  MEMB      175             0.0000000000
     21693       175  POPE      H17S          -29.1368039361      -21.6772244307       -2.4581592419  MEMB      175             0.0000000000
     21694       175  POPE      C218          -28.4857863972      -21.2376651088       -0.7466553086  MEMB      175             0.0000000000
     21695       175  POPE      H18R          -28.4987094716      -20.5129795389       -0.0308631714  MEMB      175             0.0000000000
     21696       175  POPE      H18S          -27.5278645098      -20.6809773127       -0.5452290399  MEMB      175             0.0000000000
     21697       175  POPE      H18T          -28.9218219256      -22.0216027564       -0.0981118724  MEMB      175             0.0000000000
     21698       175  POPE      C33           -33.7807818629      -21.9550391934      -12.3812283060  MEMB      175             0.0000000000
     21699       175  POPE      H3X           -34.7361538105      -22.2695340027      -12.8537377752  MEMB      175             0.0000000000
     21700       175  POPE      H3Y           -33.9983527549      -21.7155049194      -11.3072488058  MEMB      175             0.0000000000
     21701       175  POPE      C34           -32.6999902804      -22.9887241856      -12.5330113719  MEMB      175             0.0000000000
     21702       175  POPE      H4X           -31.8133251738      -22.5946138672      -11.9933652664  MEMB      175             0.0000000000
     21703       175  POPE      H4Y           -32.3632241434      -23.0804544146      -13.5891509368  MEMB      175             0.0000000000
     21704       175  POPE      C35           -33.2192315909      -24.3404099776      -12.0407467044  MEMB      175             0.0000000000
     21705       175  POPE      H5X           -34.1231620098      -24.6584442421      -12.5992978917  MEMB      175             0.0000000000
     21706       175  POPE      H5Y           -33.5058688760      -24.2625424359      -10.9675163266  MEMB      175             0.0000000000
     21707       175  POPE      C36           -32.1759321329      -25.4273158751      -12.1454932649  MEMB      175             0.0000000000
     21708       175  POPE      H6X           -31.7707067039      -25.5078338569      -13.1780697903  MEMB      175             0.0000000000
     21709       175  POPE      H6Y           -32.6445089475      -26.4098749525      -11.9005590528  MEMB      175             0.0000000000
     21710       175  POPE      C37           -31.0991454604      -25.0668797768      -11.1417492291  MEMB      175             0.0000000000
     21711       175  POPE      H7X           -30.7920176317      -24.0129224845      -11.1649418032  MEMB      175             0.0000000000
     21712       175  POPE      H7Y           -30.1491564180      -25.4804369641      -11.4559454167  MEMB      175             0.0000000000
     21713       175  POPE      C38           -31.4732145387      -25.5217396693       -9.7343753569  MEMB      175             0.0000000000
     21714       175  POPE      H8X           -31.6096804411      -26.6291854963       -9.6953533641  MEMB      175             0.0000000000
     21715       175  POPE      H8Y           -32.3359348666      -25.0135686581       -9.2773747752  MEMB      175             0.0000000000
     21716       175  POPE      C39           -30.4166998384      -25.1263635776       -8.7844676312  MEMB      175             0.0000000000
     21717       175  POPE      H9X           -30.1883616103      -24.0516216525       -8.6647766301  MEMB      175             0.0000000000
     21718       175  POPE      H9Y           -29.5404042762      -25.1934126782       -9.3698237621  MEMB      175             0.0000000000
     21719       175  POPE      C310          -30.4412127445      -25.9867919604       -7.5111010254  MEMB      175             0.0000000000
     21720       175  POPE      H10X          -31.0752667025      -25.4688782047       -6.7678412746  MEMB      175             0.0000000000
     21721       175  POPE      H10Y          -29.3811751463      -25.8290043517       -7.3711600815  MEMB      175             0.0000000000
     21722       175  POPE      C311          -30.3898392105      -27.5507117654       -7.3697964002  MEMB      175             0.0000000000
     21723       175  POPE      H11X          -29.3774214720      -27.8983779876       -7.7191889550  MEMB      175             0.0000000000
     21724       175  POPE      H11Y          -31.1443488894      -28.0629641883       -7.9693869605  MEMB      175             0.0000000000
     21725       175  POPE      C312          -30.5988760958      -28.0789706655       -5.8830390331  MEMB      175             0.0000000000
     21726       175  POPE      H12X          -30.8146925916      -29.1427859750       -5.7487619602  MEMB      175             0.0000000000
     21727       175  POPE      H12Y          -31.1725690358      -27.3315943503       -5.2781383405  MEMB      175             0.0000000000
     21728       175  POPE      C313          -29.4082135209      -28.3822609556       -5.0138049152  MEMB      175             0.0000000000
     21729       175  POPE      H13X          -29.1650202845      -27.6863191299       -5.7814833308  MEMB      175             0.0000000000
     21730       175  POPE      H13Y          -28.4002691388      -28.7996976384       -5.0332610063  MEMB      175             0.0000000000
     21731       175  POPE      C314          -29.4827266000      -27.9539777278       -3.5756088087  MEMB      175             0.0000000000
     21732       175  POPE      H14X          -28.5431959631      -28.3415555979       -3.1406994627  MEMB      175             0.0000000000
     21733       175  POPE      H14Y          -30.0951349593      -28.8006184567       -3.2930519816  MEMB      175             0.0000000000
     21734       175  POPE      C315          -30.0347202767      -26.5100783294       -3.0386277918  MEMB      175             0.0000000000
     21735       175  POPE      H15X          -30.2077216105      -26.9559039776       -2.0353790170  MEMB      175             0.0000000000
     21736       175  POPE      H15Y          -31.0403943872      -26.5258665315       -3.3254071826  MEMB      175             0.0000000000
     21737       175  POPE      C316          -29.6874097898      -24.8344081153       -3.2905805209  MEMB      175             0.0000000000
     21738       175  POPE      H16X          -29.6418394373      -24.0517705738       -2.4924568235  MEMB      175             0.0000000000
     21739       175  POPE      H16Y          -29.6156027176      -24.4386336461       -4.2791131740  MEMB      175             0.0000000000
     21740       175  POPE      H16Z          -28.6406329046      -24.5135106851       -3.2634018639  MEMB      175             0.0000000000
     21741       176  PMPE      N             -24.8809888327      -27.8256979648      -16.6372675837  MEMB      176             0.0000000000
     21742       176  PMPE      HN1           -24.2580671367      -27.5925757278      -15.8397259721  MEMB      176             0.0000000000
     21743       176  PMPE      HN2           -25.1595725823      -26.9622101882      -17.1568216397  MEMB      176             0.0000000000
     21744       176  PMPE      HN3           -25.7482981880      -28.2975912826      -16.3069316968  MEMB      176             0.0000000000
     21745       176  PMPE      C12           -24.2121376194      -28.7719500348      -17.5945637708  MEMB      176             0.0000000000
     21746       176  PMPE      H12A          -23.5026682043      -29.4091062213      -17.0288369527  MEMB      176             0.0000000000
     21747       176  PMPE      H12B          -23.6887102720      -28.1681420156      -18.3640000994  MEMB      176             0.0000000000
     21748       176  PMPE      C11           -25.2766523487      -29.6499165488      -18.2354008140  MEMB      176             0.0000000000
     21749       176  PMPE      H11A          -25.9031397639      -30.1038537152      -17.4294708688  MEMB      176             0.0000000000
     21750       176  PMPE      H11B          -24.7871406647      -30.4772010053      -18.8082049202  MEMB      176             0.0000000000
     21751       176  PMPE      P             -27.1688599025      -29.5360412259      -19.9855278900  MEMB      176             0.0000000000
     21752       176  PMPE      O13           -26.5545054816      -29.9724721983      -21.2512434624  MEMB      176             0.0000000000
     21753       176  PMPE      O14           -28.3105687645      -28.6121598991      -20.0563627376  MEMB      176             0.0000000000
     21754       176  PMPE      O11           -27.5367041056      -30.7958594911      -19.1098554907  MEMB      176             0.0000000000
     21755       176  PMPE      O12           -26.0630488257      -28.8300724454      -19.0893132837  MEMB      176             0.0000000000
     21756       176  PMPE      C1            -28.7430102223      -31.4801599358      -19.4728502915  MEMB      176             0.0000000000
     21757       176  PMPE      HA            -28.5863026925      -32.0693266737      -20.4077409001  MEMB      176             0.0000000000
     21758       176  PMPE      HB            -29.6018753507      -30.7796848449      -19.6261921478  MEMB      176             0.0000000000
     21759       176  PMPE      C2            -29.1954270251      -32.4178361140      -18.3475680657  MEMB      176             0.0000000000
     21760       176  PMPE      HS            -30.2418300669      -32.7470908408      -18.5402795230  MEMB      176             0.0000000000
     21761       176  PMPE      O21           -29.1018551443      -31.7970696441      -17.0720642440  MEMB      176             0.0000000000
     21762       176  PMPE      C21           -30.0619472891      -31.0419498938      -16.6784118082  MEMB      176             0.0000000000
     21763       176  PMPE      O22           -31.1205605043      -30.8230366142      -17.2293671978  MEMB      176             0.0000000000
     21764       176  PMPE      C22           -29.6448597696      -30.4542702516      -15.3341884362  MEMB      176             0.0000000000
     21765       176  PMPE      H2R           -28.6138639676      -30.0638155354      -15.4337778555  MEMB      176             0.0000000000
     21766       176  PMPE      H2S           -29.6461421189      -31.2754289966      -14.5849410586  MEMB      176             0.0000000000
     21767       176  PMPE      C3            -28.3262159996      -33.6850884467      -18.2733211669  MEMB      176             0.0000000000
     21768       176  PMPE      HX            -28.4050149630      -34.2911224657      -19.2013251334  MEMB      176             0.0000000000
     21769       176  PMPE      HY            -28.7620210747      -34.2149751061      -17.4329459202  MEMB      176             0.0000000000
     21770       176  PMPE      O31           -26.9610157307      -33.4712636157      -17.9574365253  MEMB      176             0.0000000000
     21771       176  PMPE      C31           -26.7090948306      -33.2723722948      -16.6938475207  MEMB      176             0.0000000000
     21772       176  PMPE      O32           -27.4862085458      -33.3074637597      -15.7547381313  MEMB      176             0.0000000000
     21773       176  PMPE      C32           -25.2280736115      -33.2755507404      -16.6245883415  MEMB      176             0.0000000000
     21774       176  PMPE      H2X           -24.6758281404      -32.3638894507      -16.7896387914  MEMB      176             0.0000000000
     21775       176  PMPE      H2Y           -24.8923572395      -34.0574375771      -17.3424626287  MEMB      176             0.0000000000
     21776       176  PMPE      C23           -30.5993223236      -29.3460327442      -14.8765481471  MEMB      176             0.0000000000
     21777       176  PMPE      H3R           -31.6547055242      -29.6938406967      -14.9947738545  MEMB      176             0.0000000000
     21778       176  PMPE      H3S           -30.4846493554      -28.4231238682      -15.4858725744  MEMB      176             0.0000000000
     21779       176  PMPE      C24           -30.3986948611      -29.0379312686      -13.4023984160  MEMB      176             0.0000000000
     21780       176  PMPE      H4R           -30.5137537022      -29.9960278071      -12.8449287250  MEMB      176             0.0000000000
     21781       176  PMPE      H4S           -31.2524102275      -28.3807118463      -13.1156133415  MEMB      176             0.0000000000
     21782       176  PMPE      C25           -29.0685218194      -28.3632309811      -13.0218847750  MEMB      176             0.0000000000
     21783       176  PMPE      H5R           -28.7681494172      -27.5674094555      -13.7404389377  MEMB      176             0.0000000000
     21784       176  PMPE      H5S           -28.2335330014      -29.0883236392      -12.9501330434  MEMB      176             0.0000000000
     21785       176  PMPE      C26           -29.2516306355      -27.7569474560      -11.6396850882  MEMB      176             0.0000000000
     21786       176  PMPE      H6R           -29.3720457747      -28.5643861305      -10.8949180284  MEMB      176             0.0000000000
     21787       176  PMPE      H6S           -30.2598694373      -27.3010619818      -11.7117216937  MEMB      176             0.0000000000
     21788       176  PMPE      C27           -28.1047142862      -26.8181069618      -11.1996109996  MEMB      176             0.0000000000
     21789       176  PMPE      H7R           -28.2578892799      -25.8093618237      -11.6485102463  MEMB      176             0.0000000000
     21790       176  PMPE      H7S           -27.1252780695      -27.1730389690      -11.5313566996  MEMB      176             0.0000000000
     21791       176  PMPE      C28           -27.9224935040      -26.6823082639       -9.6877144792  MEMB      176             0.0000000000
     21792       176  PMPE      H8R           -27.4016893752      -27.4625259187       -9.1251935700  MEMB      176             0.0000000000
     21793       176  PMPE      H8S           -28.9526787934      -26.9214161815       -9.3763743903  MEMB      176             0.0000000000
     21794       176  PMPE      C29           -27.3303770456      -25.2657095460       -9.3992752332  MEMB      176             0.0000000000
     21795       176  PMPE      H9R           -27.6030598100      -24.4065239094      -10.0435093064  MEMB      176             0.0000000000
     21796       176  PMPE      C217          -25.9001687183      -25.3587844675       -8.9314982199  MEMB      176             0.0000000000
     21797       176  PMPE      H17R          -25.2258982357      -24.5968613107       -9.2683158893  MEMB      176             0.0000000000
     21798       176  PMPE      H17S          -25.6244638965      -26.3467318986       -8.5867523288  MEMB      176             0.0000000000
     21799       176  PMPE      C210          -26.9667473493      -24.7661002886       -8.0308519252  MEMB      176             0.0000000000
     21800       176  PMPE      H10R          -26.7438501629      -23.7257891993       -7.8489586156  MEMB      176             0.0000000000
     21801       176  PMPE      C211          -26.9805604911      -25.6299900750       -6.8631216227  MEMB      176             0.0000000000
     21802       176  PMPE      H11R          -26.0135601137      -25.7323373202       -6.3181787095  MEMB      176             0.0000000000
     21803       176  PMPE      H11S          -27.1827961142      -26.6478435862       -7.2611583424  MEMB      176             0.0000000000
     21804       176  PMPE      C212          -27.8693168794      -25.0848947154       -5.7781919296  MEMB      176             0.0000000000
     21805       176  PMPE      H12R          -28.9058679697      -24.7590551635       -6.0482292236  MEMB      176             0.0000000000
     21806       176  PMPE      H12S          -27.6434070374      -24.2695479053       -5.0970177562  MEMB      176             0.0000000000
     21807       176  PMPE      C213          -27.7833521442      -26.2648059658       -4.9284389436  MEMB      176             0.0000000000
     21808       176  PMPE      H13R          -27.4737621639      -27.1737879213       -5.5460682979  MEMB      176             0.0000000000
     21809       176  PMPE      H13S          -28.8655737681      -26.1944967544       -4.8902435270  MEMB      176             0.0000000000
     21810       176  PMPE      C214          -27.0591018326      -26.4752125412       -3.5809994852  MEMB      176             0.0000000000
     21811       176  PMPE      H14R          -26.1341233486      -26.3410451610       -4.1535120953  MEMB      176             0.0000000000
     21812       176  PMPE      H14S          -26.9707719055      -27.5180347643       -3.3177330715  MEMB      176             0.0000000000
     21813       176  PMPE      C215          -27.1922592729      -25.6904696047       -2.1662727243  MEMB      176             0.0000000000
     21814       176  PMPE      H15R          -26.8971461399      -24.8163115595       -2.7201333892  MEMB      176             0.0000000000
     21815       176  PMPE      H15S          -26.2959470181      -25.7409271147       -1.5749667563  MEMB      176             0.0000000000
     21816       176  PMPE      C216          -28.3493642049      -25.4573511951       -1.0265202827  MEMB      176             0.0000000000
     21817       176  PMPE      H16R          -28.6111882059      -24.5098035419       -0.5322126567  MEMB      176             0.0000000000
     21818       176  PMPE      H16S          -29.4682742159      -25.3200335160       -1.1252049109  MEMB      176             0.0000000000
     21819       176  PMPE      H16T          -28.8480313221      -26.3704475796       -0.9907160442  MEMB      176             0.0000000000
     21820       176  PMPE      C33           -24.9170547692      -33.5635520218      -15.2263608465  MEMB      176             0.0000000000
     21821       176  PMPE      H3X           -23.8735698587      -33.8998119043      -15.2890397732  MEMB      176             0.0000000000
     21822       176  PMPE      H3Y           -25.6707923041      -34.3205634992      -14.9131719652  MEMB      176             0.0000000000
     21823       176  PMPE      C34           -24.5945718664      -32.4765954369      -14.2451610995  MEMB      176             0.0000000000
     21824       176  PMPE      H4X           -25.3286535152      -31.6931375388      -14.4039961565  MEMB      176             0.0000000000
     21825       176  PMPE      H4Y           -23.4942180379      -32.2375360946      -14.2801769863  MEMB      176             0.0000000000
     21826       176  PMPE      C35           -24.8507081140      -32.7999068071      -12.8190511407  MEMB      176             0.0000000000
     21827       176  PMPE      H5X           -23.9715646858      -33.3448647768      -12.5316804659  MEMB      176             0.0000000000
     21828       176  PMPE      H5Y           -25.7646025726      -33.4153372674      -12.6871438800  MEMB      176             0.0000000000
     21829       176  PMPE      C36           -24.6476527840      -31.6807577423      -11.8772488949  MEMB      176             0.0000000000
     21830       176  PMPE      H6X           -23.6883640604      -31.1650995988      -12.0540788199  MEMB      176             0.0000000000
     21831       176  PMPE      H6Y           -24.4517938976      -32.0516468078      -10.9163980264  MEMB      176             0.0000000000
     21832       176  PMPE      C37           -25.9252202605      -30.9585211810      -11.6510471479  MEMB      176             0.0000000000
     21833       176  PMPE      H7X           -26.6980460259      -31.5705537562      -11.1234218897  MEMB      176             0.0000000000
     21834       176  PMPE      H7Y           -26.2630263296      -30.8004241429      -12.6921264701  MEMB      176             0.0000000000
     21835       176  PMPE      C38           -25.6162096889      -29.6560842412      -10.9512221237  MEMB      176             0.0000000000
     21836       176  PMPE      H8X           -26.4813905477      -28.9972632147      -11.0948714536  MEMB      176             0.0000000000
     21837       176  PMPE      H8Y           -24.7509189270      -29.2213466723      -11.5058898209  MEMB      176             0.0000000000
     21838       176  PMPE      C39           -25.1663376168      -29.7222602112       -9.4765994790  MEMB      176             0.0000000000
     21839       176  PMPE      H9X           -24.9660128634      -28.6737034607       -9.1703903858  MEMB      176             0.0000000000
     21840       176  PMPE      H9Y           -24.1871970882      -30.2320456448       -9.4706955737  MEMB      176             0.0000000000
     21841       176  PMPE      C310          -26.1356924708      -30.3257896568       -8.4315711048  MEMB      176             0.0000000000
     21842       176  PMPE      H10X          -26.1808549688      -31.4389262715       -8.5458965060  MEMB      176             0.0000000000
     21843       176  PMPE      H10Y          -27.1384078641      -29.9124674300       -8.6166961888  MEMB      176             0.0000000000
     21844       176  PMPE      C311          -25.8047533883      -29.8701831551       -6.9862531660  MEMB      176             0.0000000000
     21845       176  PMPE      H11X          -25.3825444325      -28.8701094926       -6.8458505905  MEMB      176             0.0000000000
     21846       176  PMPE      H11Y          -24.9618832784      -30.3824534773       -6.7536266419  MEMB      176             0.0000000000
     21847       176  PMPE      C312          -26.5561646004      -30.4239507516       -5.7812835605  MEMB      176             0.0000000000
     21848       176  PMPE      H12X          -26.5601087337      -31.5422674725       -5.7962628432  MEMB      176             0.0000000000
     21849       176  PMPE      H12Y          -27.5703854512      -30.0842186933       -5.9391687637  MEMB      176             0.0000000000
     21850       176  PMPE      C313          -26.1003339580      -29.8709660230       -4.4152624583  MEMB      176             0.0000000000
     21851       176  PMPE      H13X          -26.1066940953      -28.7959177401       -4.3265614253  MEMB      176             0.0000000000
     21852       176  PMPE      H13Y          -25.0434966252      -29.7786771286       -4.2371512942  MEMB      176             0.0000000000
     21853       176  PMPE      C314          -26.6774611506      -30.6779999996       -3.2552792379  MEMB      176             0.0000000000
     21854       176  PMPE      H14X          -26.5820702650      -31.7693984143       -3.5313446504  MEMB      176             0.0000000000
     21855       176  PMPE      H14Y          -27.7601026398      -30.5932910093       -3.1971971129  MEMB      176             0.0000000000
     21856       176  PMPE      C315          -25.8092407440      -30.4827427273       -1.9742168761  MEMB      176             0.0000000000
     21857       176  PMPE      H15X          -24.9385062838      -29.8451337619       -2.1266007165  MEMB      176             0.0000000000
     21858       176  PMPE      H15Y          -25.5884399573      -31.5186503775       -1.8254655643  MEMB      176             0.0000000000
     21859       176  PMPE      C316          -26.2577304151      -30.0346750855       -0.6450142396  MEMB      176             0.0000000000
     21860       176  PMPE      H16X          -25.7146390804      -30.0228439085        0.2938512899  MEMB      176             0.0000000000
     21861       176  PMPE      H16Y          -27.1162461995      -30.7052146773       -0.4945904539  MEMB      176             0.0000000000
     21862       176  PMPE      H16Z          -26.5056293820      -28.9699998620       -0.8607725569  MEMB      176             0.0000000000
     21863       177  OYPE      N             -19.5685581631      -31.3397804096      -18.0418555998  MEMB      177             0.0000000000
     21864       177  OYPE      HN1           -19.2536193841      -30.5585326735      -17.3983482457  MEMB      177             0.0000000000
     21865       177  OYPE      HN2           -18.8285996272      -31.5492636408      -18.7344300555  MEMB      177             0.0000000000
     21866       177  OYPE      HN3           -20.4721764136      -31.0927852694      -18.4803508364  MEMB      177             0.0000000000
     21867       177  OYPE      C12           -19.7183754841      -32.5530294957      -17.1642991721  MEMB      177             0.0000000000
     21868       177  OYPE      H12A          -20.4428111494      -32.2734188149      -16.3693021463  MEMB      177             0.0000000000
     21869       177  OYPE      H12B          -18.7144809207      -32.7945995357      -16.7330368938  MEMB      177             0.0000000000
     21870       177  OYPE      C11           -20.2035387578      -33.7051834215      -17.9152951835  MEMB      177             0.0000000000
     21871       177  OYPE      H11A          -21.2060283387      -33.4237772599      -18.3134679434  MEMB      177             0.0000000000
     21872       177  OYPE      H11B          -20.2741264650      -34.5654219812      -17.1983876172  MEMB      177             0.0000000000
     21873       177  OYPE      P             -19.7104318130      -35.0004622967      -19.9977851644  MEMB      177             0.0000000000
     21874       177  OYPE      O13           -18.5414047555      -35.6393227349      -20.6184392496  MEMB      177             0.0000000000
     21875       177  OYPE      O14           -20.8109835103      -34.3990443525      -20.7823015598  MEMB      177             0.0000000000
     21876       177  OYPE      O11           -20.2692438615      -36.0256302510      -19.0126246577  MEMB      177             0.0000000000
     21877       177  OYPE      O12           -19.2405146954      -33.9124192053      -18.9355179086  MEMB      177             0.0000000000
     21878       177  OYPE      C1            -20.9462767285      -37.2053439544      -19.3857059513  MEMB      177             0.0000000000
     21879       177  OYPE      HA            -20.3584778843      -37.8939966969      -20.0294041275  MEMB      177             0.0000000000
     21880       177  OYPE      HB            -21.9439577160      -36.9700824497      -19.8379358771  MEMB      177             0.0000000000
     21881       177  OYPE      C2            -21.1469424474      -37.9532426912      -18.1040001849  MEMB      177             0.0000000000
     21882       177  OYPE      HS            -21.8078640054      -38.8180085700      -18.3419489233  MEMB      177             0.0000000000
     21883       177  OYPE      O21           -21.6526267489      -37.0021091579      -17.1279167820  MEMB      177             0.0000000000
     21884       177  OYPE      C21           -22.9281596283      -36.8353153719      -17.2215817411  MEMB      177             0.0000000000
     21885       177  OYPE      O22           -23.6640929799      -37.4254837126      -17.9375738642  MEMB      177             0.0000000000
     21886       177  OYPE      C22           -23.4184241988      -35.8248611738      -16.2769836990  MEMB      177             0.0000000000
     21887       177  OYPE      H2R           -24.4928852342      -35.7290624401      -16.5786861881  MEMB      177             0.0000000000
     21888       177  OYPE      H2S           -22.8215084875      -34.9282461048      -16.5179419855  MEMB      177             0.0000000000
     21889       177  OYPE      C3            -19.8767790678      -38.6326637235      -17.5126718536  MEMB      177             0.0000000000
     21890       177  OYPE      HX            -19.4083343140      -39.3674414061      -18.1774820680  MEMB      177             0.0000000000
     21891       177  OYPE      HY            -20.2333729408      -39.3838929962      -16.8185983677  MEMB      177             0.0000000000
     21892       177  OYPE      O31           -18.8807989029      -37.7041948139      -17.0413431556  MEMB      177             0.0000000000
     21893       177  OYPE      C31           -18.5579849340      -37.3543204978      -15.8178373232  MEMB      177             0.0000000000
     21894       177  OYPE      O32           -19.0563145337      -37.6451771539      -14.7698124081  MEMB      177             0.0000000000
     21895       177  OYPE      C32           -17.4990269412      -36.3097379516      -15.8024273789  MEMB      177             0.0000000000
     21896       177  OYPE      H2X           -16.6782271463      -36.3590938960      -15.0628084781  MEMB      177             0.0000000000
     21897       177  OYPE      H2Y           -17.0208217281      -36.2785733853      -16.7785317198  MEMB      177             0.0000000000
     21898       177  OYPE      C23           -23.3752860641      -36.2459629211      -14.7709106362  MEMB      177             0.0000000000
     21899       177  OYPE      H3R           -22.3666341455      -36.5493898301      -14.4928242131  MEMB      177             0.0000000000
     21900       177  OYPE      H3S           -23.9637578780      -37.1403474381      -14.8843834464  MEMB      177             0.0000000000
     21901       177  OYPE      C24           -23.9111990533      -35.3915244490      -13.5611342272  MEMB      177             0.0000000000
     21902       177  OYPE      H4R           -24.9828211574      -35.1597841548      -13.5952493382  MEMB      177             0.0000000000
     21903       177  OYPE      H4S           -23.1740567572      -34.5894398596      -13.5772596953  MEMB      177             0.0000000000
     21904       177  OYPE      C25           -24.1900141037      -35.7306697845      -12.1094358595  MEMB      177             0.0000000000
     21905       177  OYPE      H5R           -23.3851033529      -36.3680253739      -11.8946002206  MEMB      177             0.0000000000
     21906       177  OYPE      H5S           -25.2171637829      -36.1282620163      -12.0803292666  MEMB      177             0.0000000000
     21907       177  OYPE      C26           -24.6075159942      -34.9718300801      -10.8976464307  MEMB      177             0.0000000000
     21908       177  OYPE      H6R           -24.9586387100      -35.6732140163      -10.1064779561  MEMB      177             0.0000000000
     21909       177  OYPE      H6S           -25.5214527379      -34.3799132316      -11.0765938938  MEMB      177             0.0000000000
     21910       177  OYPE      C27           -23.3775057062      -34.3203972490      -10.4146637158  MEMB      177             0.0000000000
     21911       177  OYPE      H7R           -22.8210479925      -33.8084823624      -11.2288816137  MEMB      177             0.0000000000
     21912       177  OYPE      H7S           -22.6411297875      -35.0926762244      -10.1812024664  MEMB      177             0.0000000000
     21913       177  OYPE      C28           -23.8201248991      -33.4365747501       -9.2979626772  MEMB      177             0.0000000000
     21914       177  OYPE      H8R           -24.0498300501      -33.9499243214       -8.3735515907  MEMB      177             0.0000000000
     21915       177  OYPE      H8S           -24.8538131362      -33.0397729220       -9.4695906820  MEMB      177             0.0000000000
     21916       177  OYPE      C29           -22.7010292166      -32.4348572179       -9.2744389653  MEMB      177             0.0000000000
     21917       177  OYPE      H9R           -22.0990673020      -32.3019950056      -10.1862796929  MEMB      177             0.0000000000
     21918       177  OYPE      C210          -22.4705024527      -31.6416447346       -8.2704239550  MEMB      177             0.0000000000
     21919       177  OYPE      H10R          -21.7086048689      -30.8685635497       -8.3759025612  MEMB      177             0.0000000000
     21920       177  OYPE      C211          -23.3365304973      -31.6741050926       -7.0715448813  MEMB      177             0.0000000000
     21921       177  OYPE      H11R          -24.3687348704      -32.0302233251       -7.3377514310  MEMB      177             0.0000000000
     21922       177  OYPE      H11S          -23.2022213710      -30.6807938413       -6.5948387757  MEMB      177             0.0000000000
     21923       177  OYPE      C212          -23.1901407933      -32.5687419396       -5.9241612398  MEMB      177             0.0000000000
     21924       177  OYPE      H12R          -22.2305164913      -32.1418036039       -5.4922641307  MEMB      177             0.0000000000
     21925       177  OYPE      H12S          -23.2767878268      -33.5178976038       -6.5078744334  MEMB      177             0.0000000000
     21926       177  OYPE      C213          -23.8795864960      -32.9308827591       -4.6975358951  MEMB      177             0.0000000000
     21927       177  OYPE      H13R          -23.3263103938      -33.6873612651       -4.1089490438  MEMB      177             0.0000000000
     21928       177  OYPE      H13S          -24.8766685180      -33.2891154315       -5.0334867015  MEMB      177             0.0000000000
     21929       177  OYPE      C214          -23.8441784794      -31.6824806826       -3.9494820585  MEMB      177             0.0000000000
     21930       177  OYPE      H14R          -24.7165819494      -31.9053692671       -3.3891993195  MEMB      177             0.0000000000
     21931       177  OYPE      H14S          -23.9107317865      -30.9624449794       -4.7746340748  MEMB      177             0.0000000000
     21932       177  OYPE      C215          -22.8320344130      -31.1573115298       -2.9630785161  MEMB      177             0.0000000000
     21933       177  OYPE      H15R          -23.1735134850      -30.1732297383       -2.5492195583  MEMB      177             0.0000000000
     21934       177  OYPE      H15S          -21.9068144837      -31.0496086154       -3.4265425342  MEMB      177             0.0000000000
     21935       177  OYPE      C216          -22.5289166104      -32.0698440475       -1.8619418759  MEMB      177             0.0000000000
     21936       177  OYPE      H16R          -22.3669865065      -33.1351414197       -2.1218140748  MEMB      177             0.0000000000
     21937       177  OYPE      H16S          -23.5424256840      -31.9992494982       -1.5959084726  MEMB      177             0.0000000000
     21938       177  OYPE      H16T          -22.1649998971      -31.6850857566       -0.9004206949  MEMB      177             0.0000000000
     21939       177  OYPE      C33           -18.1639550064      -35.1595083484      -15.1308599753  MEMB      177             0.0000000000
     21940       177  OYPE      H3X           -19.2547841788      -35.0748648902      -15.3298823110  MEMB      177             0.0000000000
     21941       177  OYPE      H3Y           -17.5829100608      -34.3162049725      -15.5501340520  MEMB      177             0.0000000000
     21942       177  OYPE      C34           -17.9598319706      -35.1937097932      -13.6193224497  MEMB      177             0.0000000000
     21943       177  OYPE      H4X           -18.6483518236      -35.8523885128      -13.0445370171  MEMB      177             0.0000000000
     21944       177  OYPE      H4Y           -16.8931773705      -35.3839375953      -13.3274864141  MEMB      177             0.0000000000
     21945       177  OYPE      C35           -18.2702586641      -33.8284046598      -13.2042303757  MEMB      177             0.0000000000
     21946       177  OYPE      H5X           -19.2494977038      -33.4358023127      -13.5421935703  MEMB      177             0.0000000000
     21947       177  OYPE      H5Y           -17.4851239976      -33.2570655446      -13.7743574404  MEMB      177             0.0000000000
     21948       177  OYPE      C36           -18.1086798100      -33.7420448373      -11.6961681072  MEMB      177             0.0000000000
     21949       177  OYPE      H6X           -17.0445503161      -33.9241895843      -11.4735613688  MEMB      177             0.0000000000
     21950       177  OYPE      H6Y           -18.3005180492      -32.7496772251      -11.2552616838  MEMB      177             0.0000000000
     21951       177  OYPE      C37           -19.2445099970      -34.2667383652      -10.9229085812  MEMB      177             0.0000000000
     21952       177  OYPE      H7X           -20.1582578877      -34.1222299967      -11.5381215076  MEMB      177             0.0000000000
     21953       177  OYPE      H7Y           -19.0041353868      -35.3218711049      -10.6935007333  MEMB      177             0.0000000000
     21954       177  OYPE      C38           -19.5949854907      -33.4586415076       -9.6894198901  MEMB      177             0.0000000000
     21955       177  OYPE      H8X           -19.9072065205      -32.3886526728       -9.7788340118  MEMB      177             0.0000000000
     21956       177  OYPE      H8Y           -20.3851482453      -34.0922314101       -9.4093015459  MEMB      177             0.0000000000
     21957       177  OYPE      C39           -18.4676121944      -33.6407687818       -8.7991436851  MEMB      177             0.0000000000
     21958       177  OYPE      H9X           -17.5813471545      -33.6870719465       -9.3139443500  MEMB      177             0.0000000000
     21959       177  OYPE      C310          -18.1180242056      -34.2541316178       -7.6830702397  MEMB      177             0.0000000000
     21960       177  OYPE      H10X          -17.3190254167      -33.7221302948       -7.2075918318  MEMB      177             0.0000000000
     21961       177  OYPE      C311          -18.7873162455      -35.1539135602       -6.7027742089  MEMB      177             0.0000000000
     21962       177  OYPE      H11X          -19.4189074356      -34.3934598949       -7.0432497764  MEMB      177             0.0000000000
     21963       177  OYPE      H11Y          -18.9290767901      -36.0012305555       -7.2391377409  MEMB      177             0.0000000000
     21964       177  OYPE      C312          -19.0351390375      -35.5054907917       -5.0784149073  MEMB      177             0.0000000000
     21965       177  OYPE      H12X          -19.1595878974      -34.7472177441       -4.2953818024  MEMB      177             0.0000000000
     21966       177  OYPE      H12Y          -18.1139312994      -35.9650371050       -4.8470876572  MEMB      177             0.0000000000
     21967       177  OYPE      C313          -20.1469186526      -35.4323292615       -4.0175370869  MEMB      177             0.0000000000
     21968       177  OYPE      H13X          -20.1424046767      -35.2153295053       -2.9370452855  MEMB      177             0.0000000000
     21969       177  OYPE      H13Y          -20.9561846545      -34.6628536099       -3.9255025498  MEMB      177             0.0000000000
     21970       177  OYPE      C314          -20.0465528988      -36.7873409659       -4.2800383190  MEMB      177             0.0000000000
     21971       177  OYPE      H14X          -19.0771420260      -37.0493010382       -3.7786625930  MEMB      177             0.0000000000
     21972       177  OYPE      H14Y          -20.2401818240      -37.1096190191       -5.3805407071  MEMB      177             0.0000000000
     21973       177  OYPE      C315          -20.6226584031      -37.5328387427       -3.3005569446  MEMB      177             0.0000000000
     21974       177  OYPE      H15X          -20.7304833121      -38.5973344399       -3.4539915242  MEMB      177             0.0000000000
     21975       177  OYPE      H15Y          -21.3865063930      -37.2697212425       -4.0963329524  MEMB      177             0.0000000000
     21976       177  OYPE      C316          -20.7679304341      -36.9321640018       -1.8292827895  MEMB      177             0.0000000000
     21977       177  OYPE      H16X          -21.4547455614      -37.4263088767       -1.4185598855  MEMB      177             0.0000000000
     21978       177  OYPE      H16Y          -21.2519874089      -36.0120576871       -1.3935922500  MEMB      177             0.0000000000
     21979       177  OYPE      C317          -20.2099495348      -37.3646676213       -0.7419337314  MEMB      177             0.0000000000
     21980       177  OYPE      H17X          -19.5954711120      -36.8716988361       -1.5290229496  MEMB      177             0.0000000000
     21981       177  OYPE      H17Y          -19.7134405750      -38.3113053538       -0.8071776831  MEMB      177             0.0000000000
     21982       177  OYPE      C318          -20.7769180023      -36.5564263937        0.5687243393  MEMB      177             0.0000000000
     21983       177  OYPE      H18X          -20.9733754408      -36.9634977773        1.4858033108  MEMB      177             0.0000000000
     21984       177  OYPE      H18Y          -20.0404226245      -36.5349445041        1.3478636491  MEMB      177             0.0000000000
     21985       177  OYPE      H18Z          -21.1167931526      -35.4769713648        0.5147236131  MEMB      177             0.0000000000
     21986       178  PMPG      C13            30.7901801930      -22.7805651837      -19.8748240502  MEMB      178             0.0000000000
     21987       178  PMPG      H13A           31.5958461823      -23.4730483668      -20.1905647147  MEMB      178             0.0000000000
     21988       178  PMPG      H13B           30.3488623944      -22.3545980277      -20.8016502766  MEMB      178             0.0000000000
     21989       178  PMPG      OC3            31.3382405544      -21.7114339557      -19.1006749829  MEMB      178             0.0000000000
     21990       178  PMPG      HO3            31.0565921916      -21.9133987654      -18.1978626985  MEMB      178             0.0000000000
     21991       178  PMPG      C12            29.6533622034      -23.5565865869      -19.1383177560  MEMB      178             0.0000000000
     21992       178  PMPG      H12A           28.7347606769      -22.9708420011      -19.3387575655  MEMB      178             0.0000000000
     21993       178  PMPG      OC2            29.8223552698      -23.6405001088      -17.7153035791  MEMB      178             0.0000000000
     21994       178  PMPG      HO2            29.3289401707      -24.4139871707      -17.4241673689  MEMB      178             0.0000000000
     21995       178  PMPG      C11            29.4095229996      -24.9578577686      -19.7182246981  MEMB      178             0.0000000000
     21996       178  PMPG      H11A           29.0687965480      -24.8365669407      -20.7715891774  MEMB      178             0.0000000000
     21997       178  PMPG      H11B           28.5930250056      -25.4763327584      -19.1585702402  MEMB      178             0.0000000000
     21998       178  PMPG      P              30.8557052912      -26.9792233648      -18.8923689265  MEMB      178             0.0000000000
     21999       178  PMPG      O13            32.1528655324      -27.5470845368      -19.2933801367  MEMB      178             0.0000000000
     22000       178  PMPG      O14            29.6190606012      -27.7625628465      -19.1238373607  MEMB      178             0.0000000000
     22001       178  PMPG      O11            30.8514490350      -26.4984648092      -17.3984227107  MEMB      178             0.0000000000
     22002       178  PMPG      O12            30.6344210666      -25.6713247757      -19.7215210546  MEMB      178             0.0000000000
     22003       178  PMPG      C1             30.2415417908      -27.3223851940      -16.4081023616  MEMB      178             0.0000000000
     22004       178  PMPG      HA             30.3779951039      -28.4198924222      -16.6050927684  MEMB      178             0.0000000000
     22005       178  PMPG      HB             29.1566609484      -27.0965641875      -16.3347862323  MEMB      178             0.0000000000
     22006       178  PMPG      C2             30.9424237371      -27.0121949565      -15.0820079088  MEMB      178             0.0000000000
     22007       178  PMPG      HS             30.5225918623      -27.7043022270      -14.3058398188  MEMB      178             0.0000000000
     22008       178  PMPG      O21            30.7869541915      -25.6541155995      -14.6974977977  MEMB      178             0.0000000000
     22009       178  PMPG      C21            29.6590320759      -25.2922240123      -14.1969300616  MEMB      178             0.0000000000
     22010       178  PMPG      O22            28.7551485101      -26.0055830615      -13.8209583529  MEMB      178             0.0000000000
     22011       178  PMPG      C22            29.5917230308      -23.7790846293      -14.2112170786  MEMB      178             0.0000000000
     22012       178  PMPG      H2R            28.6112817268      -23.5106833653      -14.6554872453  MEMB      178             0.0000000000
     22013       178  PMPG      H2S            30.3906697437      -23.3622304534      -14.8562171391  MEMB      178             0.0000000000
     22014       178  PMPG      C3             32.4539272511      -27.2129997138      -15.2297221033  MEMB      178             0.0000000000
     22015       178  PMPG      HX             32.9333150844      -26.4863834325      -15.9003054102  MEMB      178             0.0000000000
     22016       178  PMPG      HY             32.6186397504      -28.2242743634      -15.6818739101  MEMB      178             0.0000000000
     22017       178  PMPG      O31            33.0442346618      -27.1592483513      -13.9412337993  MEMB      178             0.0000000000
     22018       178  PMPG      C31            33.4499976503      -26.1236941258      -13.3419694697  MEMB      178             0.0000000000
     22019       178  PMPG      O32            33.4990640957      -24.9757629292      -13.7419839688  MEMB      178             0.0000000000
     22020       178  PMPG      C32            33.8721740537      -26.6012991104      -11.9700772082  MEMB      178             0.0000000000
     22021       178  PMPG      H2X            34.7662082847      -27.2536703493      -11.9504688126  MEMB      178             0.0000000000
     22022       178  PMPG      H2Y            32.9989896705      -27.0235478174      -11.4465381993  MEMB      178             0.0000000000
     22023       178  PMPG      C23            29.6664226731      -23.1659423829      -12.8149441900  MEMB      178             0.0000000000
     22024       178  PMPG      H3R            28.9025253385      -23.5603306756      -12.1050033750  MEMB      178             0.0000000000
     22025       178  PMPG      H3S            29.5261265917      -22.0712447938      -12.9387028997  MEMB      178             0.0000000000
     22026       178  PMPG      C24            31.0056695754      -23.2052811794      -12.1460050030  MEMB      178             0.0000000000
     22027       178  PMPG      H4R            31.7459854629      -22.6542611781      -12.7822059483  MEMB      178             0.0000000000
     22028       178  PMPG      H4S            31.3719307376      -24.2482825422      -12.0486978755  MEMB      178             0.0000000000
     22029       178  PMPG      C25            30.7658390703      -22.5963334498      -10.7498473841  MEMB      178             0.0000000000
     22030       178  PMPG      H5R            30.1171605742      -21.7154742808      -10.6966502336  MEMB      178             0.0000000000
     22031       178  PMPG      H5S            31.5996174291      -21.9720631654      -10.6276019127  MEMB      178             0.0000000000
     22032       178  PMPG      C26            30.4981143333      -23.7073707381       -9.7014800536  MEMB      178             0.0000000000
     22033       178  PMPG      H6R            31.1528480173      -24.5735984702       -9.9679449271  MEMB      178             0.0000000000
     22034       178  PMPG      H6S            29.4456616507      -23.9995590437       -9.8400938590  MEMB      178             0.0000000000
     22035       178  PMPG      C27            30.4910848378      -23.5746169595       -8.1607349368  MEMB      178             0.0000000000
     22036       178  PMPG      H7R            31.3430782074      -23.5745368577       -7.6038498335  MEMB      178             0.0000000000
     22037       178  PMPG      H7S            30.5663215296      -24.5719396805       -7.6953252802  MEMB      178             0.0000000000
     22038       178  PMPG      C28            30.3636196560      -22.2373102986       -7.4826010596  MEMB      178             0.0000000000
     22039       178  PMPG      H8R            30.6799722778      -21.3463603040       -8.0569734123  MEMB      178             0.0000000000
     22040       178  PMPG      H8S            30.8691651552      -22.1394679472       -6.5083363282  MEMB      178             0.0000000000
     22041       178  PMPG      C29            28.9889316597      -22.4288269289       -7.1858771031  MEMB      178             0.0000000000
     22042       178  PMPG      H9R            28.3542999180      -22.6407303817       -8.0564934442  MEMB      178             0.0000000000
     22043       178  PMPG      C217           28.6259997205      -23.0907251857       -5.8714854591  MEMB      178             0.0000000000
     22044       178  PMPG      H17R           27.7559738921      -23.7003773846       -6.0374567656  MEMB      178             0.0000000000
     22045       178  PMPG      H17S           29.4337757862      -23.3570803923       -5.2027598958  MEMB      178             0.0000000000
     22046       178  PMPG      C210           28.5020162640      -21.5814328111       -6.0905233429  MEMB      178             0.0000000000
     22047       178  PMPG      H10R           27.6057169209      -21.1172201208       -6.5053012635  MEMB      178             0.0000000000
     22048       178  PMPG      C211           29.5425866860      -20.7294892839       -5.3540913996  MEMB      178             0.0000000000
     22049       178  PMPG      H11R           30.3236526799      -21.3365914858       -4.8517965823  MEMB      178             0.0000000000
     22050       178  PMPG      H11S           30.1491036025      -20.1180489454       -6.0354620424  MEMB      178             0.0000000000
     22051       178  PMPG      C212           28.8356160637      -19.9016283017       -4.3199146431  MEMB      178             0.0000000000
     22052       178  PMPG      H12R           27.8494387444      -19.5712420718       -4.7088066092  MEMB      178             0.0000000000
     22053       178  PMPG      H12S           29.4693081131      -19.0183338259       -4.1123250871  MEMB      178             0.0000000000
     22054       178  PMPG      C213           28.6772063837      -20.6516088632       -3.0048549075  MEMB      178             0.0000000000
     22055       178  PMPG      H13R           28.0000809609      -21.5255957532       -3.1157268049  MEMB      178             0.0000000000
     22056       178  PMPG      H13S           28.2216491840      -19.8994759110       -2.3211322490  MEMB      178             0.0000000000
     22057       178  PMPG      C214           30.0348906186      -21.1418355280       -2.4928323175  MEMB      178             0.0000000000
     22058       178  PMPG      H14R           30.7896331010      -20.3766069058       -2.7986213360  MEMB      178             0.0000000000
     22059       178  PMPG      H14S           30.3372005591      -22.1133157272       -2.9258154854  MEMB      178             0.0000000000
     22060       178  PMPG      C215           30.1517202426      -21.2310787816       -1.0144108708  MEMB      178             0.0000000000
     22061       178  PMPG      H15R           30.9878088326      -21.8935734296       -0.6986032163  MEMB      178             0.0000000000
     22062       178  PMPG      H15S           29.2191431087      -21.6296884996       -0.5331750562  MEMB      178             0.0000000000
     22063       178  PMPG      C216           30.5510250749      -19.8544181081       -0.5694902114  MEMB      178             0.0000000000
     22064       178  PMPG      H16R           29.6562167198      -19.1726894259       -0.5944768308  MEMB      178             0.0000000000
     22065       178  PMPG      H16S           31.3919324821      -19.2914706185       -0.9726529870  MEMB      178             0.0000000000
     22066       178  PMPG      H16T           30.9228575089      -20.0954871571        0.4465533748  MEMB      178             0.0000000000
     22067       178  PMPG      C33            34.2866494647      -25.4602258036      -11.1866854047  MEMB      178             0.0000000000
     22068       178  PMPG      H3X            33.3473834444      -24.8373015298      -11.0730263868  MEMB      178             0.0000000000
     22069       178  PMPG      H3Y            34.9947351395      -24.8527239389      -11.7638216844  MEMB      178             0.0000000000
     22070       178  PMPG      C34            34.9121389368      -25.8806503583       -9.8382813432  MEMB      178             0.0000000000
     22071       178  PMPG      H4X            35.4919401748      -25.0747101107       -9.4017027730  MEMB      178             0.0000000000
     22072       178  PMPG      H4Y            35.7941801270      -26.5189394642       -9.8145728325  MEMB      178             0.0000000000
     22073       178  PMPG      C35            33.7654875344      -26.1169193219       -8.8929189597  MEMB      178             0.0000000000
     22074       178  PMPG      H5X            33.1190245986      -26.8352043129       -9.2100494269  MEMB      178             0.0000000000
     22075       178  PMPG      H5Y            33.1727654580      -25.3781327763       -8.4171748220  MEMB      178             0.0000000000
     22076       178  PMPG      C36            34.0884604169      -26.6073059588       -7.6197721039  MEMB      178             0.0000000000
     22077       178  PMPG      H6X            34.7235416388      -25.8295951120       -7.3982590852  MEMB      178             0.0000000000
     22078       178  PMPG      H6Y            34.8292180845      -27.4190358870       -7.8085838551  MEMB      178             0.0000000000
     22079       178  PMPG      C37            32.8329988868      -26.7529531917       -6.6342846547  MEMB      178             0.0000000000
     22080       178  PMPG      H7X            33.1884095429      -27.3994897705       -5.8305151960  MEMB      178             0.0000000000
     22081       178  PMPG      H7Y            31.9701192550      -27.2711373891       -7.0110676889  MEMB      178             0.0000000000
     22082       178  PMPG      C38            32.3022466045      -25.4707601827       -5.9776553001  MEMB      178             0.0000000000
     22083       178  PMPG      H8X            32.3646192717      -24.7407358122       -6.7201420296  MEMB      178             0.0000000000
     22084       178  PMPG      H8Y            33.2232340995      -25.1066109862       -5.5681604793  MEMB      178             0.0000000000
     22085       178  PMPG      C39            31.1072304473      -25.3227019207       -4.8968745604  MEMB      178             0.0000000000
     22086       178  PMPG      H9X            30.3754166823      -26.1040494405       -5.0479931267  MEMB      178             0.0000000000
     22087       178  PMPG      H9Y            31.1712429065      -24.3026594314       -4.4224127526  MEMB      178             0.0000000000
     22088       178  PMPG      C310           31.0978659647      -25.9149593741       -3.4120923446  MEMB      178             0.0000000000
     22089       178  PMPG      H10X           31.7157534722      -25.0563775827       -2.8848178387  MEMB      178             0.0000000000
     22090       178  PMPG      H10Y           31.4585135058      -26.9645456342       -3.4561409171  MEMB      178             0.0000000000
     22091       178  PMPG      C311           30.4417042580      -26.1505132145       -2.1860055651  MEMB      178             0.0000000000
     22092       178  PMPG      H11X           31.0189817272      -26.6417430571       -1.3468970191  MEMB      178             0.0000000000
     22093       178  PMPG      H11Y           29.6956073132      -26.8933837219       -2.5511269874  MEMB      178             0.0000000000
     22094       178  PMPG      C312           30.1892287606      -24.7289167170       -1.7759253449  MEMB      178             0.0000000000
     22095       178  PMPG      H12X           29.8577404719      -24.2251546985       -2.7477114415  MEMB      178             0.0000000000
     22096       178  PMPG      H12Y           31.0154418328      -24.1269866515       -1.3457994013  MEMB      178             0.0000000000
     22097       178  PMPG      C313           29.1140496217      -24.8447872465       -0.9144882851  MEMB      178             0.0000000000
     22098       178  PMPG      H13X           28.7145808509      -25.7817468073       -1.3943128319  MEMB      178             0.0000000000
     22099       178  PMPG      H13Y           28.6217616282      -23.8693500946       -1.0568297807  MEMB      178             0.0000000000
     22100       178  PMPG      C314           28.9559941176      -25.3181656399        0.4261096133  MEMB      178             0.0000000000
     22101       178  PMPG      H14X           29.6054934220      -24.5746111695        0.9416453199  MEMB      178             0.0000000000
     22102       178  PMPG      H14Y           29.4339953319      -26.3297176505        0.4288011042  MEMB      178             0.0000000000
     22103       178  PMPG      C315           27.4464251543      -25.2364870060        0.9896509836  MEMB      178             0.0000000000
     22104       178  PMPG      H15X           27.1916314735      -24.1640846345        0.9608761924  MEMB      178             0.0000000000
     22105       178  PMPG      H15Y           27.3736146032      -25.4017174880        2.0746485807  MEMB      178             0.0000000000
     22106       178  PMPG      C316           26.2593610458      -26.2240528319        0.6985470242  MEMB      178             0.0000000000
     22107       178  PMPG      H16X           25.6529539436      -26.1391182846       -0.1961784781  MEMB      178             0.0000000000
     22108       178  PMPG      H16Y           25.3386988372      -25.9426575837        1.2361820156  MEMB      178             0.0000000000
     22109       178  PMPG      H16Z           26.5889700750      -27.2718256821        0.5456690341  MEMB      178             0.0000000000
     22110       179  PMPE      N              39.4542013390       12.8465639983      -21.2807612707  MEMB      179             0.0000000000
     22111       179  PMPE      HN1            39.1615624784       13.1263051038      -22.2373229645  MEMB      179             0.0000000000
     22112       179  PMPE      HN2            39.4281297465       13.6106912917      -20.5624485915  MEMB      179             0.0000000000
     22113       179  PMPE      HN3            40.4674020847       12.6288088299      -21.3022162397  MEMB      179             0.0000000000
     22114       179  PMPE      C12            38.8060639631       11.5423754125      -20.8764465628  MEMB      179             0.0000000000
     22115       179  PMPE      H12A           39.2560390139       11.0709440204      -19.9735282726  MEMB      179             0.0000000000
     22116       179  PMPE      H12B           38.9961764578       10.8532284849      -21.7078279314  MEMB      179             0.0000000000
     22117       179  PMPE      C11            37.3724757140       11.8046482719      -20.5248209453  MEMB      179             0.0000000000
     22118       179  PMPE      H11A           36.8709793824       10.8092344200      -20.4357109785  MEMB      179             0.0000000000
     22119       179  PMPE      H11B           36.8763984935       12.3809800429      -21.3301057840  MEMB      179             0.0000000000
     22120       179  PMPE      P              37.1281057198       11.8384860910      -17.9559290252  MEMB      179             0.0000000000
     22121       179  PMPE      O13            38.2896023503       10.9840912142      -17.6526738032  MEMB      179             0.0000000000
     22122       179  PMPE      O14            35.7783052854       11.2743459907      -17.9700077599  MEMB      179             0.0000000000
     22123       179  PMPE      O11            37.2082525769       13.0923814285      -17.0761516238  MEMB      179             0.0000000000
     22124       179  PMPE      O12            37.3780132563       12.5663789661      -19.3258861289  MEMB      179             0.0000000000
     22125       179  PMPE      C1             36.0818796846       13.8143094394      -16.6558627542  MEMB      179             0.0000000000
     22126       179  PMPE      HA             35.0890964424       13.3186893514      -16.8921244997  MEMB      179             0.0000000000
     22127       179  PMPE      HB             36.0570756259       14.8488669071      -17.0488669346  MEMB      179             0.0000000000
     22128       179  PMPE      C2             36.2338760537       13.8651679691      -15.1611436055  MEMB      179             0.0000000000
     22129       179  PMPE      HS             35.2074705443       14.2038146972      -14.9538947413  MEMB      179             0.0000000000
     22130       179  PMPE      O21            37.0560696859       14.7846426756      -14.5859116823  MEMB      179             0.0000000000
     22131       179  PMPE      C21            36.5328155056       15.9088332526      -14.4422297555  MEMB      179             0.0000000000
     22132       179  PMPE      O22            35.5763619160       16.4320347121      -14.9765829663  MEMB      179             0.0000000000
     22133       179  PMPE      C22            37.5057210690       16.5063195139      -13.6049615862  MEMB      179             0.0000000000
     22134       179  PMPE      H2R            37.5981124315       17.1627190478      -14.4903415453  MEMB      179             0.0000000000
     22135       179  PMPE      H2S            38.4835440705       15.9756601096      -13.5211802614  MEMB      179             0.0000000000
     22136       179  PMPE      C3             36.7528845832       12.5323635169      -14.5659473863  MEMB      179             0.0000000000
     22137       179  PMPE      HX             37.5379396727       12.0316781566      -15.0940562663  MEMB      179             0.0000000000
     22138       179  PMPE      HY             36.0029163134       11.8011721967      -14.8299753759  MEMB      179             0.0000000000
     22139       179  PMPE      O31            37.1505408692       12.5144603936      -13.1916516331  MEMB      179             0.0000000000
     22140       179  PMPE      C31            37.2107631614       11.1857393554      -12.8651770300  MEMB      179             0.0000000000
     22141       179  PMPE      O32            37.0326287761       10.2521619373      -13.6062831347  MEMB      179             0.0000000000
     22142       179  PMPE      C32            36.9650060446       11.1656477078      -11.4380220456  MEMB      179             0.0000000000
     22143       179  PMPE      H2X            36.0374478724       11.7512586713      -11.6777094262  MEMB      179             0.0000000000
     22144       179  PMPE      H2Y            37.5348188237       11.8919147194      -10.8898950647  MEMB      179             0.0000000000
     22145       179  PMPE      C23            37.0106912490       17.1401171448      -12.3245078305  MEMB      179             0.0000000000
     22146       179  PMPE      H3R            36.4332786789       18.0846696755      -12.4647911644  MEMB      179             0.0000000000
     22147       179  PMPE      H3S            37.8608725596       17.3624121532      -11.6311745006  MEMB      179             0.0000000000
     22148       179  PMPE      C24            36.1703919938       16.1403308873      -11.6215588245  MEMB      179             0.0000000000
     22149       179  PMPE      H4R            36.7326539026       15.1811968019      -11.5887300219  MEMB      179             0.0000000000
     22150       179  PMPE      H4S            35.2165314004       15.9882210317      -12.1707716408  MEMB      179             0.0000000000
     22151       179  PMPE      C25            35.8989171930       16.7208555351      -10.2716720853  MEMB      179             0.0000000000
     22152       179  PMPE      H5R            35.1614875628       17.5332768994      -10.3883872708  MEMB      179             0.0000000000
     22153       179  PMPE      H5S            36.8384824032       17.0530068828       -9.7960830003  MEMB      179             0.0000000000
     22154       179  PMPE      C26            35.3552881012       15.7145310814       -9.3805827653  MEMB      179             0.0000000000
     22155       179  PMPE      H6R            34.4597058748       15.2201558965       -9.8740041763  MEMB      179             0.0000000000
     22156       179  PMPE      H6S            35.0546270966       16.1725146514       -8.4214243318  MEMB      179             0.0000000000
     22157       179  PMPE      C27            36.4505312817       14.7482195591       -9.0274529659  MEMB      179             0.0000000000
     22158       179  PMPE      H7R            37.0831234446       14.3022665309       -9.8178664391  MEMB      179             0.0000000000
     22159       179  PMPE      H7S            35.6405896356       14.1316065933       -8.9987258172  MEMB      179             0.0000000000
     22160       179  PMPE      C28            36.8965183927       14.6238438277       -7.5832888805  MEMB      179             0.0000000000
     22161       179  PMPE      H8R            37.3746987969       13.6207173821       -7.3960162545  MEMB      179             0.0000000000
     22162       179  PMPE      H8S            36.1575278794       14.7988255737       -6.7856693232  MEMB      179             0.0000000000
     22163       179  PMPE      C29            37.8369108805       15.6385902462       -7.6172679803  MEMB      179             0.0000000000
     22164       179  PMPE      H9R            37.6043801327       16.7018799235       -7.8220525481  MEMB      179             0.0000000000
     22165       179  PMPE      C217           38.8990022638       15.0365742644       -8.4971508507  MEMB      179             0.0000000000
     22166       179  PMPE      H17R           39.3378187516       15.7428719305       -9.1913128925  MEMB      179             0.0000000000
     22167       179  PMPE      H17S           39.0835254600       13.9811348062       -8.6096880664  MEMB      179             0.0000000000
     22168       179  PMPE      C210           39.0567819601       15.3338227126       -6.9707697921  MEMB      179             0.0000000000
     22169       179  PMPE      H10R           39.3827068593       16.3544804404       -6.7917968844  MEMB      179             0.0000000000
     22170       179  PMPE      C211           39.2105469197       14.2200697760       -5.8593521947  MEMB      179             0.0000000000
     22171       179  PMPE      H11R           40.2332914978       13.9812990838       -5.5332588520  MEMB      179             0.0000000000
     22172       179  PMPE      H11S           38.9742870759       13.2093155216       -6.2217614877  MEMB      179             0.0000000000
     22173       179  PMPE      C212           38.5433453436       14.6863845767       -4.5495351113  MEMB      179             0.0000000000
     22174       179  PMPE      H12R           37.5150040248       14.9064606883       -4.8382117173  MEMB      179             0.0000000000
     22175       179  PMPE      H12S           38.8362061762       15.6523398948       -4.0934713272  MEMB      179             0.0000000000
     22176       179  PMPE      C213           38.7591611651       13.8077963085       -3.3299036654  MEMB      179             0.0000000000
     22177       179  PMPE      H13R           39.8415498902       13.6324026347       -3.1006232305  MEMB      179             0.0000000000
     22178       179  PMPE      H13S           38.3573744479       12.8257010617       -3.6091097366  MEMB      179             0.0000000000
     22179       179  PMPE      C214           38.0219949124       14.4179876939       -2.1118197237  MEMB      179             0.0000000000
     22180       179  PMPE      H14R           38.4677110955       15.3886340361       -1.7878151509  MEMB      179             0.0000000000
     22181       179  PMPE      H14S           38.1627474929       13.6985446837       -1.2828841687  MEMB      179             0.0000000000
     22182       179  PMPE      C215           36.4987819197       14.6408086071       -2.2852416176  MEMB      179             0.0000000000
     22183       179  PMPE      H15R           36.0652773023       13.6934578593       -2.6740406442  MEMB      179             0.0000000000
     22184       179  PMPE      H15S           36.2784913667       15.4398628323       -3.0318341579  MEMB      179             0.0000000000
     22185       179  PMPE      C216           35.7903134939       15.0098719753       -0.9726274089  MEMB      179             0.0000000000
     22186       179  PMPE      H16R           36.1821245719       15.9734819237       -0.5768062672  MEMB      179             0.0000000000
     22187       179  PMPE      H16S           34.6913732302       15.1043171294       -1.1036411120  MEMB      179             0.0000000000
     22188       179  PMPE      H16T           35.9480744322       14.2172607442       -0.2120652822  MEMB      179             0.0000000000
     22189       179  PMPE      C33            37.0946656952        9.8312734749      -10.5818397569  MEMB      179             0.0000000000
     22190       179  PMPE      H3X            38.1328702751        9.5564732041      -10.8254184360  MEMB      179             0.0000000000
     22191       179  PMPE      H3Y            36.4025568764        9.0807330785      -10.9580439066  MEMB      179             0.0000000000
     22192       179  PMPE      C34            36.9417446931        9.8016374313       -8.9789831416  MEMB      179             0.0000000000
     22193       179  PMPE      H4X            37.4674677312       10.7150072492       -8.6700743536  MEMB      179             0.0000000000
     22194       179  PMPE      H4Y            37.5399114547        8.9501841159       -8.6003652194  MEMB      179             0.0000000000
     22195       179  PMPE      C35            35.6037669347        9.5165288976       -8.1536628871  MEMB      179             0.0000000000
     22196       179  PMPE      H5X            34.7583635990        9.1326442002       -8.7443718755  MEMB      179             0.0000000000
     22197       179  PMPE      H5Y            34.8945934571       10.1907696953       -7.8164081121  MEMB      179             0.0000000000
     22198       179  PMPE      C36            35.6524740265        9.3381760161       -6.6177756730  MEMB      179             0.0000000000
     22199       179  PMPE      H6X            36.1563243953        8.4012128408       -6.4909428042  MEMB      179             0.0000000000
     22200       179  PMPE      H6Y            34.6208645800        9.2868309032       -6.1657269644  MEMB      179             0.0000000000
     22201       179  PMPE      C37            36.5719450638       10.1928181000       -5.7725365991  MEMB      179             0.0000000000
     22202       179  PMPE      H7X            36.3244399438       11.2696106898       -5.8588766683  MEMB      179             0.0000000000
     22203       179  PMPE      H7Y            37.5949249567        9.9898581451       -6.1663956981  MEMB      179             0.0000000000
     22204       179  PMPE      C38            36.4341680313        9.6429992770       -4.3431494470  MEMB      179             0.0000000000
     22205       179  PMPE      H8X            36.7818396315        8.5843946105       -4.3626608203  MEMB      179             0.0000000000
     22206       179  PMPE      H8Y            35.3488264807        9.5861259663       -4.1057107468  MEMB      179             0.0000000000
     22207       179  PMPE      C39            37.1957268111       10.4058551771       -3.2528570930  MEMB      179             0.0000000000
     22208       179  PMPE      H9X            36.8494117079       11.4611336015       -3.2052970841  MEMB      179             0.0000000000
     22209       179  PMPE      H9Y            38.2826927215       10.4023921644       -3.4785365955  MEMB      179             0.0000000000
     22210       179  PMPE      C310           37.0366423398        9.7800501407       -1.8621799390  MEMB      179             0.0000000000
     22211       179  PMPE      H10X           37.3720441621        8.7206958881       -1.9228959237  MEMB      179             0.0000000000
     22212       179  PMPE      H10Y           35.9643232275        9.6992829638       -1.6498648716  MEMB      179             0.0000000000
     22213       179  PMPE      C311           37.7185056626       10.6118284506       -0.7381195218  MEMB      179             0.0000000000
     22214       179  PMPE      H11X           37.5623791071       10.1140827077        0.2535398488  MEMB      179             0.0000000000
     22215       179  PMPE      H11Y           37.3831816406       11.6570533311       -0.6861492666  MEMB      179             0.0000000000
     22216       179  PMPE      C312           39.2091781968       10.6931657504       -0.9113363296  MEMB      179             0.0000000000
     22217       179  PMPE      H12X           39.6604195788       11.0397587745       -1.8647714048  MEMB      179             0.0000000000
     22218       179  PMPE      H12Y           39.1569634547        9.6259450173       -1.0624865847  MEMB      179             0.0000000000
     22219       179  PMPE      C313           40.0094462600       11.0079128713        0.3632254207  MEMB      179             0.0000000000
     22220       179  PMPE      H13X           40.9853198389       10.5477892744        0.2954547005  MEMB      179             0.0000000000
     22221       179  PMPE      H13Y           39.7035610927       10.5048062030        1.2962443512  MEMB      179             0.0000000000
     22222       179  PMPE      C314           40.1767441665       12.4647559201        0.6218448462  MEMB      179             0.0000000000
     22223       179  PMPE      H14X           39.2657976780       12.7263340712        1.1774396194  MEMB      179             0.0000000000
     22224       179  PMPE      H14Y           40.2812871285       13.0287897803       -0.3180757167  MEMB      179             0.0000000000
     22225       179  PMPE      C315           41.3300392758       12.8155291072        1.4957451078  MEMB      179             0.0000000000
     22226       179  PMPE      H15X           42.2964696722       12.4228477638        1.1800569084  MEMB      179             0.0000000000
     22227       179  PMPE      H15Y           41.1331588893       12.4373819067        2.5151156311  MEMB      179             0.0000000000
     22228       179  PMPE      C316           41.7286755826       14.2382230096        1.4063031303  MEMB      179             0.0000000000
     22229       179  PMPE      H16X           42.0796161680       14.5000798152        0.3942347209  MEMB      179             0.0000000000
     22230       179  PMPE      H16Y           42.5690164182       14.3954007963        2.1361663299  MEMB      179             0.0000000000
     22231       179  PMPE      H16Z           40.8475513627       14.8598099990        1.6544706866  MEMB      179             0.0000000000
     22232       180  PMPE      N              20.6741062383      -34.4359789764      -21.0851304886  MEMB      180             0.0000000000
     22233       180  PMPE      HN1            21.2831632108      -33.9789829385      -21.8031460566  MEMB      180             0.0000000000
     22234       180  PMPE      HN2            21.0976197022      -35.3430327787      -20.7930670236  MEMB      180             0.0000000000
     22235       180  PMPE      HN3            19.7479653557      -34.6360270224      -21.5149730812  MEMB      180             0.0000000000
     22236       180  PMPE      C12            20.3503365854      -33.5471439574      -19.8977183562  MEMB      180             0.0000000000
     22237       180  PMPE      H12A           19.7904120604      -32.6791149514      -20.3068819046  MEMB      180             0.0000000000
     22238       180  PMPE      H12B           21.3006918449      -33.1621439787      -19.4832436557  MEMB      180             0.0000000000
     22239       180  PMPE      C11            19.5049978765      -34.2778177152      -18.8075154932  MEMB      180             0.0000000000
     22240       180  PMPE      H11A           19.1725511250      -33.5248208253      -18.0497017178  MEMB      180             0.0000000000
     22241       180  PMPE      H11B           20.1554662115      -35.0061530862      -18.2647865331  MEMB      180             0.0000000000
     22242       180  PMPE      P              17.2746106312      -35.6941371384      -18.4900290983  MEMB      180             0.0000000000
     22243       180  PMPE      O13            17.9515311312      -36.8256950806      -17.8260441613  MEMB      180             0.0000000000
     22244       180  PMPE      O14            16.1097459730      -35.8989779030      -19.3675542177  MEMB      180             0.0000000000
     22245       180  PMPE      O11            16.9166207264      -34.6005537332      -17.4269087601  MEMB      180             0.0000000000
     22246       180  PMPE      O12            18.3827899359      -34.9588988679      -19.3852983949  MEMB      180             0.0000000000
     22247       180  PMPE      C1             15.9677494202      -34.8697438950      -16.3880169552  MEMB      180             0.0000000000
     22248       180  PMPE      HA             15.5842224852      -35.9229907150      -16.3599641687  MEMB      180             0.0000000000
     22249       180  PMPE      HB             15.0785610016      -34.2153883342      -16.5252790229  MEMB      180             0.0000000000
     22250       180  PMPE      C2             16.5995599904      -34.4664872936      -15.0419069078  MEMB      180             0.0000000000
     22251       180  PMPE      HS             17.0141630958      -33.4359836065      -15.1723400974  MEMB      180             0.0000000000
     22252       180  PMPE      O21            17.5866572877      -35.4266272869      -14.6491507188  MEMB      180             0.0000000000
     22253       180  PMPE      C21            18.8259425312      -35.0213861816      -14.5312476427  MEMB      180             0.0000000000
     22254       180  PMPE      O22            19.2580639074      -33.8861370865      -14.6818130233  MEMB      180             0.0000000000
     22255       180  PMPE      C22            19.6704281581      -36.2022680599      -14.0884947257  MEMB      180             0.0000000000
     22256       180  PMPE      H2R            20.7366234760      -35.9206009606      -14.1728039252  MEMB      180             0.0000000000
     22257       180  PMPE      H2S            19.4777704008      -37.0310456654      -14.8044380135  MEMB      180             0.0000000000
     22258       180  PMPE      C3             15.5304670353      -34.3700600682      -13.9452773764  MEMB      180             0.0000000000
     22259       180  PMPE      HX             15.0691384113      -35.3672236462      -13.7490907256  MEMB      180             0.0000000000
     22260       180  PMPE      HY             14.7320876982      -33.7026717457      -14.3342366886  MEMB      180             0.0000000000
     22261       180  PMPE      O31            16.0929680666      -33.7298701464      -12.7930429026  MEMB      180             0.0000000000
     22262       180  PMPE      C31            16.3364383825      -34.4741636210      -11.7418907324  MEMB      180             0.0000000000
     22263       180  PMPE      O32            16.2030708757      -35.6750371453      -11.6269645690  MEMB      180             0.0000000000
     22264       180  PMPE      C32            16.7437341183      -33.5270032295      -10.6298801790  MEMB      180             0.0000000000
     22265       180  PMPE      H2X            16.0746155570      -32.6433998733      -10.6663922384  MEMB      180             0.0000000000
     22266       180  PMPE      H2Y            17.7849399456      -33.2036360402      -10.8554508619  MEMB      180             0.0000000000
     22267       180  PMPE      C23            19.2863784798      -36.6183189504      -12.6517634009  MEMB      180             0.0000000000
     22268       180  PMPE      H3R            18.2099272946      -36.9110779726      -12.6466803617  MEMB      180             0.0000000000
     22269       180  PMPE      H3S            19.4349995637      -35.7862961293      -11.9262849285  MEMB      180             0.0000000000
     22270       180  PMPE      C24            20.0382542747      -37.8577683839      -12.2005231053  MEMB      180             0.0000000000
     22271       180  PMPE      H4R            21.0881183602      -37.6507415720      -12.0976556270  MEMB      180             0.0000000000
     22272       180  PMPE      H4S            19.9276088788      -38.6296036709      -12.9892451185  MEMB      180             0.0000000000
     22273       180  PMPE      C25            19.6240020521      -38.4089278503      -10.8442392519  MEMB      180             0.0000000000
     22274       180  PMPE      H5R            20.3678517823      -39.1751164013      -10.5243327345  MEMB      180             0.0000000000
     22275       180  PMPE      H5S            18.6601629680      -38.9024257441      -10.9688298483  MEMB      180             0.0000000000
     22276       180  PMPE      C26            19.4768549794      -37.3904157190       -9.7366750540  MEMB      180             0.0000000000
     22277       180  PMPE      H6R            18.9638653947      -37.8439318544       -8.8594333355  MEMB      180             0.0000000000
     22278       180  PMPE      H6S            18.9480885071      -36.4475929387       -9.9888109691  MEMB      180             0.0000000000
     22279       180  PMPE      C27            20.8055534234      -37.0536222321       -9.2072514729  MEMB      180             0.0000000000
     22280       180  PMPE      H7R            21.3614915148      -36.4261634413       -9.9311994888  MEMB      180             0.0000000000
     22281       180  PMPE      H7S            21.4173168144      -37.9874768517       -9.0611532198  MEMB      180             0.0000000000
     22282       180  PMPE      C28            20.5451308644      -36.3055797864       -7.9039558206  MEMB      180             0.0000000000
     22283       180  PMPE      H8R            21.5618701778      -36.2231537501       -7.7917324671  MEMB      180             0.0000000000
     22284       180  PMPE      H8S            20.1672485192      -36.9416588197       -7.0826694564  MEMB      180             0.0000000000
     22285       180  PMPE      C29            20.0608012400      -34.8465007144       -7.9526193821  MEMB      180             0.0000000000
     22286       180  PMPE      H9R            19.1599980010      -34.6788955757       -8.5232736194  MEMB      180             0.0000000000
     22287       180  PMPE      C217           21.0422508086      -33.6563788953       -7.9440932933  MEMB      180             0.0000000000
     22288       180  PMPE      H17R           20.7817376192      -32.8054764986       -8.5255412667  MEMB      180             0.0000000000
     22289       180  PMPE      H17S           22.0791148348      -33.8487354563       -7.9266431626  MEMB      180             0.0000000000
     22290       180  PMPE      C210           20.1167402126      -33.9314703673       -6.7366069773  MEMB      180             0.0000000000
     22291       180  PMPE      H10R           19.2306768486      -33.3089813205       -6.6496073779  MEMB      180             0.0000000000
     22292       180  PMPE      C211           20.6125197350      -34.4458045462       -5.4010091259  MEMB      180             0.0000000000
     22293       180  PMPE      H11R           21.6416569589      -34.0601881169       -5.4180389273  MEMB      180             0.0000000000
     22294       180  PMPE      H11S           20.4769215641      -35.5482385348       -5.2479895023  MEMB      180             0.0000000000
     22295       180  PMPE      C212           20.2825002745      -33.6492485339       -4.1441652744  MEMB      180             0.0000000000
     22296       180  PMPE      H12R           19.1856947107      -33.6397273100       -4.1102644081  MEMB      180             0.0000000000
     22297       180  PMPE      H12S           20.6973669441      -32.6221057419       -4.2766308909  MEMB      180             0.0000000000
     22298       180  PMPE      C213           20.8641061968      -34.2239471837       -2.8388336763  MEMB      180             0.0000000000
     22299       180  PMPE      H13R           20.5267435415      -33.5816427067       -2.0011881967  MEMB      180             0.0000000000
     22300       180  PMPE      H13S           21.9747029884      -34.1130711614       -2.8460605930  MEMB      180             0.0000000000
     22301       180  PMPE      C214           20.4146385372      -35.6880735592       -2.6152451674  MEMB      180             0.0000000000
     22302       180  PMPE      H14R           21.1063340558      -36.3546654691       -3.1742123426  MEMB      180             0.0000000000
     22303       180  PMPE      H14S           19.4055141178      -35.8204081506       -3.0516365857  MEMB      180             0.0000000000
     22304       180  PMPE      C215           20.3475439452      -36.1596746865       -1.1666830598  MEMB      180             0.0000000000
     22305       180  PMPE      H15R           20.2711563574      -37.2781785180       -1.1265074231  MEMB      180             0.0000000000
     22306       180  PMPE      H15S           19.4584179873      -35.7453151851       -0.6369392499  MEMB      180             0.0000000000
     22307       180  PMPE      C216           21.5704080213      -35.6749677976       -0.4356707301  MEMB      180             0.0000000000
     22308       180  PMPE      H16R           21.7635051181      -34.6044765500       -0.5301472810  MEMB      180             0.0000000000
     22309       180  PMPE      H16S           21.3996670564      -35.6765637990        0.6206244291  MEMB      180             0.0000000000
     22310       180  PMPE      H16T           22.4523873302      -36.2814134232       -0.6890600181  MEMB      180             0.0000000000
     22311       180  PMPE      C33            16.6854703522      -34.2255607863       -9.2608224826  MEMB      180             0.0000000000
     22312       180  PMPE      H3X            17.3094467131      -33.6272798917       -8.5581958344  MEMB      180             0.0000000000
     22313       180  PMPE      H3Y            17.1107308812      -35.2529570917       -9.3046024359  MEMB      180             0.0000000000
     22314       180  PMPE      C34            15.3130362560      -34.3414999758       -8.6109070189  MEMB      180             0.0000000000
     22315       180  PMPE      H4X            14.6289442733      -35.0458390474       -9.1388181175  MEMB      180             0.0000000000
     22316       180  PMPE      H4Y            14.7912904351      -33.3553095373       -8.6865700830  MEMB      180             0.0000000000
     22317       180  PMPE      C35            15.4777436116      -34.7252406280       -7.1166856474  MEMB      180             0.0000000000
     22318       180  PMPE      H5X            14.5642435083      -35.2069222613       -6.7215224755  MEMB      180             0.0000000000
     22319       180  PMPE      H5Y            15.6511495507      -33.7874594904       -6.5431080851  MEMB      180             0.0000000000
     22320       180  PMPE      C36            16.4559008990      -35.8100917493       -6.6696609586  MEMB      180             0.0000000000
     22321       180  PMPE      H6X            17.4937762534      -35.4532019922       -6.7744036295  MEMB      180             0.0000000000
     22322       180  PMPE      H6Y            16.3108849997      -36.7291196074       -7.2798352804  MEMB      180             0.0000000000
     22323       180  PMPE      C37            16.1926410926      -36.0774824357       -5.1761471367  MEMB      180             0.0000000000
     22324       180  PMPE      H7X            15.1454153468      -36.4023171810       -5.0300644946  MEMB      180             0.0000000000
     22325       180  PMPE      H7Y            16.3074851459      -35.1042939296       -4.6426034273  MEMB      180             0.0000000000
     22326       180  PMPE      C38            17.1060341554      -37.0970861635       -4.5048556787  MEMB      180             0.0000000000
     22327       180  PMPE      H8X            18.1545647027      -36.7535713488       -4.5761987460  MEMB      180             0.0000000000
     22328       180  PMPE      H8Y            17.0307458848      -38.1093570031       -4.9664251731  MEMB      180             0.0000000000
     22329       180  PMPE      C39            16.7858896677      -37.2326950645       -3.0250298869  MEMB      180             0.0000000000
     22330       180  PMPE      H9X            16.5971746240      -36.2633762713       -2.5218655828  MEMB      180             0.0000000000
     22331       180  PMPE      H9Y            17.6775516315      -37.7096604802       -2.5486541315  MEMB      180             0.0000000000
     22332       180  PMPE      C310           15.5412296676      -38.0664432691       -2.8485070587  MEMB      180             0.0000000000
     22333       180  PMPE      H10X           15.8142439444      -39.0281686876       -3.3182614415  MEMB      180             0.0000000000
     22334       180  PMPE      H10Y           14.6654081776      -37.7606067460       -3.4434583216  MEMB      180             0.0000000000
     22335       180  PMPE      C311           15.0984833868      -38.1133502425       -1.3846612103  MEMB      180             0.0000000000
     22336       180  PMPE      H11X           14.1461213575      -38.6562178194       -1.2401806718  MEMB      180             0.0000000000
     22337       180  PMPE      H11Y           14.7152185530      -37.2021060738       -0.9961150805  MEMB      180             0.0000000000
     22338       180  PMPE      C312           16.1638552606      -38.6566528343       -0.4610099384  MEMB      180             0.0000000000
     22339       180  PMPE      H12X           17.0646910754      -38.0287981051       -0.3925579281  MEMB      180             0.0000000000
     22340       180  PMPE      H12Y           16.6347315095      -39.4506755795       -1.0440428811  MEMB      180             0.0000000000
     22341       180  PMPE      C313           15.4697419673      -38.9510150709        0.8927895883  MEMB      180             0.0000000000
     22342       180  PMPE      H13X           15.8809532744      -39.4485376380        1.7585923840  MEMB      180             0.0000000000
     22343       180  PMPE      H13Y           14.6554716848      -39.6851110301        0.8289510792  MEMB      180             0.0000000000
     22344       180  PMPE      C314           15.3408975625      -37.6793348496        1.6520567994  MEMB      180             0.0000000000
     22345       180  PMPE      H14X           14.3227064724      -37.7260635805        2.0623609522  MEMB      180             0.0000000000
     22346       180  PMPE      H14Y           15.5318653737      -36.8789752612        0.9122886280  MEMB      180             0.0000000000
     22347       180  PMPE      C315           16.3372092177      -37.4138683365        2.7667462350  MEMB      180             0.0000000000
     22348       180  PMPE      H15X           16.0958661667      -37.9512380336        3.7121111426  MEMB      180             0.0000000000
     22349       180  PMPE      H15Y           16.2674450584      -36.3270346544        2.9561867121  MEMB      180             0.0000000000
     22350       180  PMPE      C316           17.7841127104      -37.5420454839        2.4284445902  MEMB      180             0.0000000000
     22351       180  PMPE      H16X           18.1485634529      -38.3308464768        3.0880098725  MEMB      180             0.0000000000
     22352       180  PMPE      H16Y           18.3041440464      -36.6166969881        2.6823596339  MEMB      180             0.0000000000
     22353       180  PMPE      H16Z           18.1465161524      -37.7000023254        1.4115836018  MEMB      180             0.0000000000
     22354       181  PYPG      C13            42.1936086248       -4.0099080625      -20.6921961122  MEMB      181             0.0000000000
     22355       181  PYPG      H13A           41.6947317022       -4.7990338384      -20.0944767563  MEMB      181             0.0000000000
     22356       181  PYPG      H13B           42.2267897265       -4.2917768969      -21.7640753328  MEMB      181             0.0000000000
     22357       181  PYPG      OC3            43.4687664537       -3.7675365193      -20.1369821235  MEMB      181             0.0000000000
     22358       181  PYPG      HO3            43.3751949273       -2.9219232829      -19.6581464958  MEMB      181             0.0000000000
     22359       181  PYPG      C12            41.3490262268       -2.7894141352      -20.4898454590  MEMB      181             0.0000000000
     22360       181  PYPG      H12A           40.3168983491       -3.1208927401      -20.7197986216  MEMB      181             0.0000000000
     22361       181  PYPG      OC2            41.7218571104       -1.6906078172      -21.3445665194  MEMB      181             0.0000000000
     22362       181  PYPG      HO2            41.3469214474       -0.8824839838      -20.9374027036  MEMB      181             0.0000000000
     22363       181  PYPG      C11            41.2504314359       -2.4850796813      -19.0296743624  MEMB      181             0.0000000000
     22364       181  PYPG      H11A           42.1709692023       -2.3784126576      -18.4406022182  MEMB      181             0.0000000000
     22365       181  PYPG      H11B           40.5364834468       -3.2394648343      -18.6138765609  MEMB      181             0.0000000000
     22366       181  PYPG      P              39.9615913799       -0.8892572459      -17.7504085680  MEMB      181             0.0000000000
     22367       181  PYPG      O13            39.3972195455        0.0434639420      -18.7215050141  MEMB      181             0.0000000000
     22368       181  PYPG      O14            40.8471348886       -0.5391966619      -16.6106089027  MEMB      181             0.0000000000
     22369       181  PYPG      O11            38.8641004918       -2.0032438486      -17.4212405779  MEMB      181             0.0000000000
     22370       181  PYPG      O12            40.7210012872       -1.2733874323      -18.9787390133  MEMB      181             0.0000000000
     22371       181  PYPG      C1             37.6418886523       -2.2491594707      -18.1468557421  MEMB      181             0.0000000000
     22372       181  PYPG      HA             37.7886342264       -2.1599023260      -19.2151685475  MEMB      181             0.0000000000
     22373       181  PYPG      HB             36.7571152004       -1.5751248015      -17.9853201796  MEMB      181             0.0000000000
     22374       181  PYPG      C2             36.9542801589       -3.4615603257      -17.5921398847  MEMB      181             0.0000000000
     22375       181  PYPG      HS             35.8936547071       -3.3865025733      -17.9505621425  MEMB      181             0.0000000000
     22376       181  PYPG      O21            36.9775838179       -3.4437647400      -16.1918601623  MEMB      181             0.0000000000
     22377       181  PYPG      C21            36.3750819252       -2.5374161556      -15.5869688178  MEMB      181             0.0000000000
     22378       181  PYPG      O22            35.4934854926       -1.7886047331      -16.0187917351  MEMB      181             0.0000000000
     22379       181  PYPG      C22            37.0746609875       -2.6648206532      -14.1998633014  MEMB      181             0.0000000000
     22380       181  PYPG      H2R            36.6208919788       -2.1096953151      -13.4282884501  MEMB      181             0.0000000000
     22381       181  PYPG      H2S            38.1256743243       -2.4109321771      -14.2379153288  MEMB      181             0.0000000000
     22382       181  PYPG      C3             37.6783572274       -4.7339138986      -17.9752999154  MEMB      181             0.0000000000
     22383       181  PYPG      HX             37.7481013247       -4.8694660235      -19.0375765999  MEMB      181             0.0000000000
     22384       181  PYPG      HY             37.1151389644       -5.5990110154      -17.6087054759  MEMB      181             0.0000000000
     22385       181  PYPG      O31            39.0174528604       -4.6848291625      -17.4858934354  MEMB      181             0.0000000000
     22386       181  PYPG      C31            39.4929061370       -5.7764317563      -16.9453913448  MEMB      181             0.0000000000
     22387       181  PYPG      O32            38.9694416738       -6.8537448849      -16.9012894622  MEMB      181             0.0000000000
     22388       181  PYPG      C32            40.8566880564       -5.5199391878      -16.4187808263  MEMB      181             0.0000000000
     22389       181  PYPG      H2X            41.4313553864       -6.4356755725      -16.6349203763  MEMB      181             0.0000000000
     22390       181  PYPG      H2Y            41.3390666421       -4.7005089432      -16.9594137621  MEMB      181             0.0000000000
     22391       181  PYPG      C23            36.8724802329       -3.9091515593      -13.3974295532  MEMB      181             0.0000000000
     22392       181  PYPG      H3R            36.7151824914       -4.7660736631      -14.0337776600  MEMB      181             0.0000000000
     22393       181  PYPG      H3S            35.8890485087       -3.9688412801      -13.5306758826  MEMB      181             0.0000000000
     22394       181  PYPG      C24            36.4209263575       -3.6915965091      -11.9403002512  MEMB      181             0.0000000000
     22395       181  PYPG      H4R            35.3464325794       -3.6069098613      -11.6658317892  MEMB      181             0.0000000000
     22396       181  PYPG      H4S            37.0740950499       -2.9896697554      -11.5427858257  MEMB      181             0.0000000000
     22397       181  PYPG      C25            36.6696923433       -4.8736908103      -11.2316396474  MEMB      181             0.0000000000
     22398       181  PYPG      H5R            37.6872694799       -5.1574820168      -11.5987569561  MEMB      181             0.0000000000
     22399       181  PYPG      H5S            35.8087492643       -5.4453592258      -11.7074723649  MEMB      181             0.0000000000
     22400       181  PYPG      C26            36.6100321561       -4.9972483649       -9.7504830607  MEMB      181             0.0000000000
     22401       181  PYPG      H6R            35.5767149228       -4.8162740190       -9.3794600758  MEMB      181             0.0000000000
     22402       181  PYPG      H6S            37.4121854524       -4.3657951664       -9.3553168177  MEMB      181             0.0000000000
     22403       181  PYPG      C27            36.9481898501       -6.3190817493       -9.1392655084  MEMB      181             0.0000000000
     22404       181  PYPG      H7R            37.8579119465       -6.8410115926       -9.3993406946  MEMB      181             0.0000000000
     22405       181  PYPG      H7S            36.2254072209       -6.9232858318       -9.5828206228  MEMB      181             0.0000000000
     22406       181  PYPG      C28            36.8913700572       -6.1710631587       -7.6710597146  MEMB      181             0.0000000000
     22407       181  PYPG      H8R            36.8583324987       -7.0277566274       -7.1331173499  MEMB      181             0.0000000000
     22408       181  PYPG      H8S            35.8934435048       -5.9742655388       -7.2292918680  MEMB      181             0.0000000000
     22409       181  PYPG      C29            38.2292208189       -5.7568802386       -7.1458406446  MEMB      181             0.0000000000
     22410       181  PYPG      H9R            39.1323734558       -6.3523922309       -7.3704756444  MEMB      181             0.0000000000
     22411       181  PYPG      C210           38.2408963230       -4.8427910950       -6.2459059359  MEMB      181             0.0000000000
     22412       181  PYPG      H10R           39.1672820067       -4.2706456260       -6.0564130787  MEMB      181             0.0000000000
     22413       181  PYPG      C211           36.8641338271       -4.3414326381       -5.9023834265  MEMB      181             0.0000000000
     22414       181  PYPG      H11R           36.1598634306       -4.1395769884       -6.7419595606  MEMB      181             0.0000000000
     22415       181  PYPG      H11S           36.8329274956       -3.2952869096       -5.8297414811  MEMB      181             0.0000000000
     22416       181  PYPG      C212           36.3783426237       -4.9562407089       -4.5955002978  MEMB      181             0.0000000000
     22417       181  PYPG      H12R           36.6557496258       -5.9830189430       -4.4793935445  MEMB      181             0.0000000000
     22418       181  PYPG      H12S           35.3052983755       -4.9509257555       -4.4964407745  MEMB      181             0.0000000000
     22419       181  PYPG      C213           36.7459224357       -4.2558820941       -3.3328857178  MEMB      181             0.0000000000
     22420       181  PYPG      H13R           36.1919503171       -3.3282261606       -3.5363753839  MEMB      181             0.0000000000
     22421       181  PYPG      H13S           37.8119176836       -4.1084890350       -3.0409948713  MEMB      181             0.0000000000
     22422       181  PYPG      C214           36.0173131495       -4.4608789523       -2.1689527630  MEMB      181             0.0000000000
     22423       181  PYPG      H14R           35.0320497031       -4.7256272176       -2.3247567774  MEMB      181             0.0000000000
     22424       181  PYPG      H14S           36.2789156263       -5.5170994080       -2.2611264774  MEMB      181             0.0000000000
     22425       181  PYPG      C215           36.2118587951       -3.5286629394       -0.9161987591  MEMB      181             0.0000000000
     22426       181  PYPG      H15R           37.2799385175       -3.5528676132       -0.5810103905  MEMB      181             0.0000000000
     22427       181  PYPG      H15S           35.5931831562       -4.0385562684       -0.2687725510  MEMB      181             0.0000000000
     22428       181  PYPG      C216           35.5077799085       -2.1993107832       -0.5977668626  MEMB      181             0.0000000000
     22429       181  PYPG      H16R           34.4348326128       -2.2387095180       -0.6014723153  MEMB      181             0.0000000000
     22430       181  PYPG      H16S           35.7234577960       -1.3918647997       -1.2405478047  MEMB      181             0.0000000000
     22431       181  PYPG      H16T           35.3526695586       -1.8484489066        0.3624585124  MEMB      181             0.0000000000
     22432       181  PYPG      C33            40.7451253142       -5.2435066256      -14.9192869223  MEMB      181             0.0000000000
     22433       181  PYPG      H3X            41.6179143482       -5.6242675255      -14.3621733737  MEMB      181             0.0000000000
     22434       181  PYPG      H3Y            39.9357699982       -5.8393466512      -14.5024009228  MEMB      181             0.0000000000
     22435       181  PYPG      C34            40.5903768455       -3.7635638852      -14.6939076657  MEMB      181             0.0000000000
     22436       181  PYPG      H4X            39.6727149291       -3.4449742501      -15.2468716500  MEMB      181             0.0000000000
     22437       181  PYPG      H4Y            41.4895260506       -3.3024507010      -15.1523530974  MEMB      181             0.0000000000
     22438       181  PYPG      C35            40.4941021872       -3.3839641110      -13.2252679728  MEMB      181             0.0000000000
     22439       181  PYPG      H5X            41.3171892857       -3.8003605022      -12.6060024664  MEMB      181             0.0000000000
     22440       181  PYPG      H5Y            39.5173062403       -3.7837632627      -12.8721293118  MEMB      181             0.0000000000
     22441       181  PYPG      C36            40.4996681402       -1.8995490461      -12.9403226787  MEMB      181             0.0000000000
     22442       181  PYPG      H6X            39.7781194950       -1.3799176996      -13.6112127010  MEMB      181             0.0000000000
     22443       181  PYPG      H6Y            41.4967841814       -1.4457201024      -13.1197627969  MEMB      181             0.0000000000
     22444       181  PYPG      C37            40.1333784649       -1.7183063972      -11.4825078002  MEMB      181             0.0000000000
     22445       181  PYPG      H7X            39.3296090625       -2.4297748997      -11.1627910349  MEMB      181             0.0000000000
     22446       181  PYPG      H7Y            41.0007963474       -1.8452328779      -10.8115492778  MEMB      181             0.0000000000
     22447       181  PYPG      C38            39.7271598538       -0.3248662132      -11.2624386156  MEMB      181             0.0000000000
     22448       181  PYPG      H8X            39.0958802567       -0.0298301923      -12.0778222677  MEMB      181             0.0000000000
     22449       181  PYPG      H8Y            40.5567097652        0.4154810204      -11.2744243259  MEMB      181             0.0000000000
     22450       181  PYPG      C39            38.9773178288       -0.2056922167       -9.9819648812  MEMB      181             0.0000000000
     22451       181  PYPG      H9X            39.0529960921        0.8854974117       -9.9696818590  MEMB      181             0.0000000000
     22452       181  PYPG      H9Y            39.7345205617       -0.4624160648       -9.2247818431  MEMB      181             0.0000000000
     22453       181  PYPG      C310           37.5151466147       -0.9563351133       -9.9082151122  MEMB      181             0.0000000000
     22454       181  PYPG      H10X           37.5118714004       -1.6451993301      -10.6590996822  MEMB      181             0.0000000000
     22455       181  PYPG      H10Y           36.7395904157       -0.2710761855       -9.7731822876  MEMB      181             0.0000000000
     22456       181  PYPG      C311           36.1330180227       -1.1027927773       -8.9573180241  MEMB      181             0.0000000000
     22457       181  PYPG      H11X           36.6017784873       -2.0800667107       -8.7251170056  MEMB      181             0.0000000000
     22458       181  PYPG      H11Y           35.2540854789       -1.5869938474       -9.3505333150  MEMB      181             0.0000000000
     22459       181  PYPG      C312           35.5323262737       -0.0139147898       -7.7636422991  MEMB      181             0.0000000000
     22460       181  PYPG      H12X           36.2448950179        0.6100760047       -7.5422565903  MEMB      181             0.0000000000
     22461       181  PYPG      H12Y           35.0018502343        0.8710560600       -8.0471181266  MEMB      181             0.0000000000
     22462       181  PYPG      C313           35.9979202226        0.1952179746       -6.2129892276  MEMB      181             0.0000000000
     22463       181  PYPG      H13X           35.5972841566       -0.7716023598       -5.9766530216  MEMB      181             0.0000000000
     22464       181  PYPG      H13Y           37.1120622250        0.4218327211       -5.9836701608  MEMB      181             0.0000000000
     22465       181  PYPG      C314           35.9746229787        1.2955675464       -5.1974122355  MEMB      181             0.0000000000
     22466       181  PYPG      H14X           36.7235562390        2.1168321226       -5.3277572174  MEMB      181             0.0000000000
     22467       181  PYPG      H14Y           34.9045746634        1.3653784487       -5.2205261601  MEMB      181             0.0000000000
     22468       181  PYPG      C315           36.4980720492        0.9525468054       -3.8482534100  MEMB      181             0.0000000000
     22469       181  PYPG      H15X           35.7903877552        0.1457217095       -3.6021773387  MEMB      181             0.0000000000
     22470       181  PYPG      H15Y           37.5879772973        0.8036489897       -3.9025708882  MEMB      181             0.0000000000
     22471       181  PYPG      C316           36.5180136359        1.7995854900       -2.6485646370  MEMB      181             0.0000000000
     22472       181  PYPG      H16X           37.0937435972        1.5909801346       -1.7281562152  MEMB      181             0.0000000000
     22473       181  PYPG      H16Y           35.5434695323        1.6046321739       -2.1976521194  MEMB      181             0.0000000000
     22474       181  PYPG      H16Z           36.7761915654        2.7849182529       -2.9834350025  MEMB      181             0.0000000000
     22475       182  OYPE      N              13.5391227045       35.6114448446      -20.2673514172  MEMB      182             0.0000000000
     22476       182  OYPE      HN1            12.8693208860       35.0960000527      -20.8622719162  MEMB      182             0.0000000000
     22477       182  OYPE      HN2            13.1146504330       35.8392968952      -19.3448508733  MEMB      182             0.0000000000
     22478       182  OYPE      HN3            13.8206030544       36.5223423699      -20.7014070882  MEMB      182             0.0000000000
     22479       182  OYPE      C12            14.7445825987       34.7346213655      -20.1086332334  MEMB      182             0.0000000000
     22480       182  OYPE      H12A           15.3415562400       34.8271401933      -21.0420284640  MEMB      182             0.0000000000
     22481       182  OYPE      H12B           14.3820329089       33.6890851290      -19.9953725843  MEMB      182             0.0000000000
     22482       182  OYPE      C11            15.5840379636       35.1720754553      -18.9078819786  MEMB      182             0.0000000000
     22483       182  OYPE      H11A           16.3044418657       34.3525741105      -18.6730256127  MEMB      182             0.0000000000
     22484       182  OYPE      H11B           14.9313320659       35.3168317642      -18.0134479305  MEMB      182             0.0000000000
     22485       182  OYPE      P              16.1198622618       37.7656259133      -18.6010389110  MEMB      182             0.0000000000
     22486       182  OYPE      O13            14.8402524197       38.2499407738      -19.1503613647  MEMB      182             0.0000000000
     22487       182  OYPE      O14            17.3726410129       38.5247083392      -18.7765631579  MEMB      182             0.0000000000
     22488       182  OYPE      O11            15.9024076849       37.3662659360      -17.0785686447  MEMB      182             0.0000000000
     22489       182  OYPE      O12            16.3261826954       36.3339812874      -19.2468715344  MEMB      182             0.0000000000
     22490       182  OYPE      C1             14.9825429257       38.1018311278      -16.2518302273  MEMB      182             0.0000000000
     22491       182  OYPE      HA             14.0329666740       37.5293426197      -16.1837670349  MEMB      182             0.0000000000
     22492       182  OYPE      HB             14.7282231543       39.1014113188      -16.6821678773  MEMB      182             0.0000000000
     22493       182  OYPE      C2             15.5109577615       38.2991498251      -14.7905928863  MEMB      182             0.0000000000
     22494       182  OYPE      HS             16.2864195534       39.1069122382      -14.8317886798  MEMB      182             0.0000000000
     22495       182  OYPE      O21            16.0215766430       37.0433066560      -14.3264357562  MEMB      182             0.0000000000
     22496       182  OYPE      C21            17.1825601088       37.0747534432      -13.7084953765  MEMB      182             0.0000000000
     22497       182  OYPE      O22            17.7386908113       38.0678025208      -13.2715673628  MEMB      182             0.0000000000
     22498       182  OYPE      C22            17.7389209697       35.6490336324      -13.6937489264  MEMB      182             0.0000000000
     22499       182  OYPE      H2R            18.2884792111       35.4767849046      -14.6398472483  MEMB      182             0.0000000000
     22500       182  OYPE      H2S            16.8977652916       34.9271125971      -13.6703360627  MEMB      182             0.0000000000
     22501       182  OYPE      C3             14.4086653941       38.7725191953      -13.8090908541  MEMB      182             0.0000000000
     22502       182  OYPE      HX             13.5466504458       38.0697028591      -13.8404141128  MEMB      182             0.0000000000
     22503       182  OYPE      HY             14.0502538504       39.7094510155      -14.2471506824  MEMB      182             0.0000000000
     22504       182  OYPE      O31            14.8935466133       38.9030013914      -12.4431658511  MEMB      182             0.0000000000
     22505       182  OYPE      C31            15.5416344808       40.0412099120      -12.1620860632  MEMB      182             0.0000000000
     22506       182  OYPE      O32            15.5141377306       41.0462005898      -12.8427724490  MEMB      182             0.0000000000
     22507       182  OYPE      C32            16.3306671741       39.9486061209      -10.8457290749  MEMB      182             0.0000000000
     22508       182  OYPE      H2X            17.2017593427       39.2833642221      -11.0084114880  MEMB      182             0.0000000000
     22509       182  OYPE      H2Y            16.7181393872       40.9770463571      -10.6792430787  MEMB      182             0.0000000000
     22510       182  OYPE      C23            18.7405559768       35.4164152316      -12.5521067302  MEMB      182             0.0000000000
     22511       182  OYPE      H3R            19.4939298642       36.2367326137      -12.5091070536  MEMB      182             0.0000000000
     22512       182  OYPE      H3S            19.2953526768       34.4762138078      -12.7794850033  MEMB      182             0.0000000000
     22513       182  OYPE      C24            18.0541997919       35.4147136841      -11.1862387074  MEMB      182             0.0000000000
     22514       182  OYPE      H4R            17.4882957983       36.3695854857      -11.1063649883  MEMB      182             0.0000000000
     22515       182  OYPE      H4S            18.8457138510       35.4376853259      -10.4050953590  MEMB      182             0.0000000000
     22516       182  OYPE      C25            17.1124828829       34.2303839137      -10.9292632182  MEMB      182             0.0000000000
     22517       182  OYPE      H5R            17.6384004077       33.3024974599      -11.2425638566  MEMB      182             0.0000000000
     22518       182  OYPE      H5S            16.2106483240       34.3003831920      -11.5790843990  MEMB      182             0.0000000000
     22519       182  OYPE      C26            16.6877453452       34.1370323962       -9.4466614551  MEMB      182             0.0000000000
     22520       182  OYPE      H6R            17.4999409546       34.4799130051       -8.7665457661  MEMB      182             0.0000000000
     22521       182  OYPE      H6S            16.4560910223       33.0792680122       -9.1988815543  MEMB      182             0.0000000000
     22522       182  OYPE      C27            15.4231217198       34.9502694794       -9.1566868920  MEMB      182             0.0000000000
     22523       182  OYPE      H7R            14.6457632300       34.6243050081       -9.8862278530  MEMB      182             0.0000000000
     22524       182  OYPE      H7S            15.6256730322       36.0308573867       -9.3051781763  MEMB      182             0.0000000000
     22525       182  OYPE      C28            14.7742596285       34.7142270886       -7.7893820923  MEMB      182             0.0000000000
     22526       182  OYPE      H8R            14.4745797350       33.6391312919       -7.7611136577  MEMB      182             0.0000000000
     22527       182  OYPE      H8S            13.8426675580       35.3177211278       -7.7963687218  MEMB      182             0.0000000000
     22528       182  OYPE      C29            15.5446831682       35.0469136707       -6.5527684861  MEMB      182             0.0000000000
     22529       182  OYPE      H9R            16.1512692549       35.9629103852       -6.4899511557  MEMB      182             0.0000000000
     22530       182  OYPE      C210           15.1896014194       34.4887694587       -5.4162703557  MEMB      182             0.0000000000
     22531       182  OYPE      H10R           15.7528039189       34.7742965447       -4.5138660760  MEMB      182             0.0000000000
     22532       182  OYPE      C211           14.0355204017       33.5251255834       -5.2443849522  MEMB      182             0.0000000000
     22533       182  OYPE      H11R           14.3835324432       32.6597024270       -4.6675217626  MEMB      182             0.0000000000
     22534       182  OYPE      H11S           13.4618737713       33.1440820047       -6.1125442923  MEMB      182             0.0000000000
     22535       182  OYPE      C212           13.0531987447       34.3115978658       -4.4404217055  MEMB      182             0.0000000000
     22536       182  OYPE      H12R           12.0746317568       33.7816954857       -4.3156152292  MEMB      182             0.0000000000
     22537       182  OYPE      H12S           12.7957284602       35.3494196162       -4.7916859585  MEMB      182             0.0000000000
     22538       182  OYPE      C213           13.7854467051       34.5305264732       -3.1468382504  MEMB      182             0.0000000000
     22539       182  OYPE      H13R           13.2247990634       35.4121712112       -2.8313157008  MEMB      182             0.0000000000
     22540       182  OYPE      H13S           14.8111050338       34.8539410040       -2.9822321466  MEMB      182             0.0000000000
     22541       182  OYPE      C214           14.0586808619       33.3704888781       -2.2739709273  MEMB      182             0.0000000000
     22542       182  OYPE      H14R           14.2567901109       32.3381234134       -2.6744171834  MEMB      182             0.0000000000
     22543       182  OYPE      H14S           13.1780215664       32.6708198757       -2.5900980973  MEMB      182             0.0000000000
     22544       182  OYPE      C215           14.3077106555       34.0910441319       -0.6773408788  MEMB      182             0.0000000000
     22545       182  OYPE      H15R           13.4913177041       33.9845240060        0.1179639188  MEMB      182             0.0000000000
     22546       182  OYPE      H15S           13.6741717831       34.4966042979        0.2146828136  MEMB      182             0.0000000000
     22547       182  OYPE      C216           15.6576165924       33.9332266622       -0.1961438624  MEMB      182             0.0000000000
     22548       182  OYPE      H16R           16.0855140243       33.1295198390       -0.8081795866  MEMB      182             0.0000000000
     22549       182  OYPE      H16S           15.9352505431       33.7357730891        0.8632666624  MEMB      182             0.0000000000
     22550       182  OYPE      H16T           15.8269646870       34.9611428270       -0.5311242114  MEMB      182             0.0000000000
     22551       182  OYPE      C33            15.5012075266       39.4890040059       -9.6258972818  MEMB      182             0.0000000000
     22552       182  OYPE      H3X            15.2159650745       38.4240066196       -9.7630710394  MEMB      182             0.0000000000
     22553       182  OYPE      H3Y            14.5563322840       40.0814146016       -9.6087902396  MEMB      182             0.0000000000
     22554       182  OYPE      C34            16.1558897008       39.6859821918       -8.2407513528  MEMB      182             0.0000000000
     22555       182  OYPE      H4X            17.1911459417       39.2989983320       -8.1331032042  MEMB      182             0.0000000000
     22556       182  OYPE      H4Y            16.2276828312       40.7855536040       -8.0783202548  MEMB      182             0.0000000000
     22557       182  OYPE      C35            15.3293178628       39.0114070521       -7.1408216460  MEMB      182             0.0000000000
     22558       182  OYPE      H5X            15.6976860477       39.3264924472       -6.1387662826  MEMB      182             0.0000000000
     22559       182  OYPE      H5Y            15.4039171152       37.8996402714       -7.1947996732  MEMB      182             0.0000000000
     22560       182  OYPE      C36            13.8493406105       39.3482075256       -7.2144764021  MEMB      182             0.0000000000
     22561       182  OYPE      H6X            13.7298722271       40.4459504833       -7.3653867071  MEMB      182             0.0000000000
     22562       182  OYPE      H6Y            13.3635561346       38.8097250986       -8.0555815295  MEMB      182             0.0000000000
     22563       182  OYPE      C37            13.1818158912       38.9200505419       -5.9275717614  MEMB      182             0.0000000000
     22564       182  OYPE      H7X            13.4710176662       37.8803024138       -5.6484384156  MEMB      182             0.0000000000
     22565       182  OYPE      H7Y            13.6283671709       39.6002737809       -5.1744443664  MEMB      182             0.0000000000
     22566       182  OYPE      C38            11.6534486530       39.0109002191       -6.0402162985  MEMB      182             0.0000000000
     22567       182  OYPE      H8X            11.3815269767       40.0846934928       -6.1069241051  MEMB      182             0.0000000000
     22568       182  OYPE      H8Y            11.3557468745       38.4509148348       -6.9405217496  MEMB      182             0.0000000000
     22569       182  OYPE      C39            10.8090745139       38.4638115520       -4.9685135496  MEMB      182             0.0000000000
     22570       182  OYPE      H9X             9.8387158101       37.9830555275       -5.1680251027  MEMB      182             0.0000000000
     22571       182  OYPE      C310           11.1542897171       38.5416259657       -3.7329347188  MEMB      182             0.0000000000
     22572       182  OYPE      H10X           10.2673765245       38.3104753421       -3.1417732849  MEMB      182             0.0000000000
     22573       182  OYPE      C311           12.4070079582       39.1581264411       -3.1341265894  MEMB      182             0.0000000000
     22574       182  OYPE      H11X           12.7007596993       40.0801840958       -3.6517440995  MEMB      182             0.0000000000
     22575       182  OYPE      H11Y           12.3209498695       39.6772660672       -2.2283178643  MEMB      182             0.0000000000
     22576       182  OYPE      C312           13.5114497017       38.2243548459       -2.6466557325  MEMB      182             0.0000000000
     22577       182  OYPE      H12X           14.1228135665       38.0642639081       -3.5517064602  MEMB      182             0.0000000000
     22578       182  OYPE      H12Y           13.1687801956       37.3232217153       -2.1179703548  MEMB      182             0.0000000000
     22579       182  OYPE      C313           14.4287917502       38.8462189490       -1.6348317622  MEMB      182             0.0000000000
     22580       182  OYPE      H13X           14.6734513452       39.6563099360       -2.3052646438  MEMB      182             0.0000000000
     22581       182  OYPE      H13Y           13.9345531253       39.2199228042       -0.7137227311  MEMB      182             0.0000000000
     22582       182  OYPE      C314           15.7429602794       38.1387818783       -1.4842045043  MEMB      182             0.0000000000
     22583       182  OYPE      H14X           15.5265833006       37.2065307256       -0.9654470147  MEMB      182             0.0000000000
     22584       182  OYPE      H14Y           16.4856333987       38.5411927539       -0.8351502379  MEMB      182             0.0000000000
     22585       182  OYPE      C315           16.4802489308       38.0954624162       -2.8220679963  MEMB      182             0.0000000000
     22586       182  OYPE      H15X           16.2489239270       38.9392530926       -3.4958928428  MEMB      182             0.0000000000
     22587       182  OYPE      H15Y           16.0346003908       37.2295450631       -3.3315294013  MEMB      182             0.0000000000
     22588       182  OYPE      C316           17.9963977066       37.9821318566       -2.6933301457  MEMB      182             0.0000000000
     22589       182  OYPE      H16X           18.4552144823       38.9117014661       -2.2753389947  MEMB      182             0.0000000000
     22590       182  OYPE      H16Y           18.3937195993       37.8777338871       -3.7259375329  MEMB      182             0.0000000000
     22591       182  OYPE      C317           18.3710125185       36.7553768491       -1.8534056093  MEMB      182             0.0000000000
     22592       182  OYPE      H17X           18.1305657661       36.9591178354       -0.7826865597  MEMB      182             0.0000000000
     22593       182  OYPE      H17Y           19.4692601669       36.6197832474       -1.9020066906  MEMB      182             0.0000000000
     22594       182  OYPE      C318           17.6807164963       35.4543427660       -2.2972488280  MEMB      182             0.0000000000
     22595       182  OYPE      H18X           17.9133155067       34.6175043120       -1.6089723077  MEMB      182             0.0000000000
     22596       182  OYPE      H18Y           16.5784876775       35.5700626480       -2.2971198053  MEMB      182             0.0000000000
     22597       182  OYPE      H18Z           17.9833036837       35.1481590382       -3.3177100904  MEMB      182             0.0000000000
     22598       183  PMPE      N              -6.7417986660      -43.2541711645      -19.6740785197  MEMB      183             0.0000000000
     22599       183  PMPE      HN1            -6.1217330728      -43.7071703003      -20.3840150500  MEMB      183             0.0000000000
     22600       183  PMPE      HN2            -7.4366595026      -43.9508011644      -19.4183090701  MEMB      183             0.0000000000
     22601       183  PMPE      HN3            -7.2691846128      -42.4518905203      -20.1198539195  MEMB      183             0.0000000000
     22602       183  PMPE      C12            -6.0313608891      -42.6821686142      -18.4896197587  MEMB      183             0.0000000000
     22603       183  PMPE      H12A           -5.1039859410      -43.2773898607      -18.3720801825  MEMB      183             0.0000000000
     22604       183  PMPE      H12B           -6.6929786644      -42.8468416430      -17.6128965246  MEMB      183             0.0000000000
     22605       183  PMPE      C11            -5.7275800830      -41.1763950932      -18.6614470260  MEMB      183             0.0000000000
     22606       183  PMPE      H11A           -5.2793166937      -40.9620267846      -19.6556629287  MEMB      183             0.0000000000
     22607       183  PMPE      H11B           -4.9446302147      -40.9205932796      -17.9090042498  MEMB      183             0.0000000000
     22608       183  PMPE      P              -7.1353873223      -38.9863763035      -19.1627467106  MEMB      183             0.0000000000
     22609       183  PMPE      O13            -8.5732402703      -38.6750089386      -19.0991640967  MEMB      183             0.0000000000
     22610       183  PMPE      O14            -6.5345409884      -38.9666540940      -20.5000809124  MEMB      183             0.0000000000
     22611       183  PMPE      O11            -6.1818749579      -38.0883387712      -18.2501253360  MEMB      183             0.0000000000
     22612       183  PMPE      O12            -6.9070242991      -40.3997531932      -18.4490410417  MEMB      183             0.0000000000
     22613       183  PMPE      C1             -6.5596431612      -37.6337745811      -16.9771192102  MEMB      183             0.0000000000
     22614       183  PMPE      HA             -7.6383254892      -37.6968896867      -16.9653000379  MEMB      183             0.0000000000
     22615       183  PMPE      HB             -6.3155303723      -36.5585401638      -16.8402202916  MEMB      183             0.0000000000
     22616       183  PMPE      C2             -6.0986571158      -38.4581834196      -15.7608065793  MEMB      183             0.0000000000
     22617       183  PMPE      HS             -5.2395571873      -39.0811546233      -16.0928896524  MEMB      183             0.0000000000
     22618       183  PMPE      O21            -7.2446300535      -39.1990270741      -15.3417943216  MEMB      183             0.0000000000
     22619       183  PMPE      C21            -7.0015106509      -40.4105205398      -14.9965795171  MEMB      183             0.0000000000
     22620       183  PMPE      O22            -5.9088834781      -40.8936804652      -14.7528482658  MEMB      183             0.0000000000
     22621       183  PMPE      C22            -8.3323641174      -41.1391906999      -15.0163577645  MEMB      183             0.0000000000
     22622       183  PMPE      H2R            -8.3732539045      -41.8219255482      -15.8876928872  MEMB      183             0.0000000000
     22623       183  PMPE      H2S            -9.1752242183      -40.4299195708      -15.0725431571  MEMB      183             0.0000000000
     22624       183  PMPE      C3             -5.6501621351      -37.5413588449      -14.5982159525  MEMB      183             0.0000000000
     22625       183  PMPE      HX             -6.4070672152      -36.7548312770      -14.4199682759  MEMB      183             0.0000000000
     22626       183  PMPE      HY             -4.7000824696      -37.0498516402      -14.8962927441  MEMB      183             0.0000000000
     22627       183  PMPE      O31            -5.5233051087      -38.2394221606      -13.3689263558  MEMB      183             0.0000000000
     22628       183  PMPE      C31            -4.3681840719      -38.8014917285      -13.1991274419  MEMB      183             0.0000000000
     22629       183  PMPE      O32            -3.3860264334      -38.7784671751      -13.9205336071  MEMB      183             0.0000000000
     22630       183  PMPE      C32            -4.4402311464      -39.2876771805      -11.8280880604  MEMB      183             0.0000000000
     22631       183  PMPE      H2X            -5.1922546813      -40.0962307771      -11.7082024333  MEMB      183             0.0000000000
     22632       183  PMPE      H2Y            -4.6181234810      -38.4719993177      -11.1046795872  MEMB      183             0.0000000000
     22633       183  PMPE      C23            -8.5922214229      -41.9096407281      -13.7634046817  MEMB      183             0.0000000000
     22634       183  PMPE      H3R            -7.7700287356      -42.5933607236      -13.5117051469  MEMB      183             0.0000000000
     22635       183  PMPE      H3S            -9.5454617850      -42.4494940519      -14.0325640165  MEMB      183             0.0000000000
     22636       183  PMPE      C24            -8.9882321885      -41.1730270920      -12.5074421171  MEMB      183             0.0000000000
     22637       183  PMPE      H4R            -9.1893508075      -41.9733435762      -11.8199494260  MEMB      183             0.0000000000
     22638       183  PMPE      H4S            -9.9441725315      -40.7278508731      -12.7081210395  MEMB      183             0.0000000000
     22639       183  PMPE      C25            -8.0480683983      -40.2724473594      -11.7294557309  MEMB      183             0.0000000000
     22640       183  PMPE      H5R            -7.6248803814      -39.5281659426      -12.4235082137  MEMB      183             0.0000000000
     22641       183  PMPE      H5S            -7.2465687900      -40.9077279771      -11.2929460796  MEMB      183             0.0000000000
     22642       183  PMPE      C26            -8.7594588156      -39.6341645832      -10.5290104573  MEMB      183             0.0000000000
     22643       183  PMPE      H6R            -9.3479744671      -40.4428090557      -10.0601501063  MEMB      183             0.0000000000
     22644       183  PMPE      H6S            -9.4220778160      -38.8215148736      -10.8492826854  MEMB      183             0.0000000000
     22645       183  PMPE      C27            -7.8195851475      -39.1007708877       -9.4535901976  MEMB      183             0.0000000000
     22646       183  PMPE      H7R            -7.3407340332      -38.1658737558       -9.7959950846  MEMB      183             0.0000000000
     22647       183  PMPE      H7S            -7.0853693546      -39.8894365941       -9.2100705422  MEMB      183             0.0000000000
     22648       183  PMPE      C28            -8.4540392088      -38.7461099987       -8.1423938878  MEMB      183             0.0000000000
     22649       183  PMPE      H8R            -9.3817894404      -38.1613265315       -8.3920954095  MEMB      183             0.0000000000
     22650       183  PMPE      H8S            -7.8577148900      -38.0502161122       -7.5434171565  MEMB      183             0.0000000000
     22651       183  PMPE      C29            -8.5136281243      -39.9901629100       -7.2455968314  MEMB      183             0.0000000000
     22652       183  PMPE      H9R            -7.9385202146      -40.9158177409       -7.3846585195  MEMB      183             0.0000000000
     22653       183  PMPE      C217           -9.8602768890      -40.3657425479       -7.4683291872  MEMB      183             0.0000000000
     22654       183  PMPE      H17R          -10.1955821503      -41.3569248269       -7.5500255353  MEMB      183             0.0000000000
     22655       183  PMPE      H17S          -10.4513604525      -39.6262479112       -7.9370551398  MEMB      183             0.0000000000
     22656       183  PMPE      C210           -9.5013648912      -39.8780814418       -6.1615273430  MEMB      183             0.0000000000
     22657       183  PMPE      H10R           -9.7852843324      -40.6455255179       -5.4067331682  MEMB      183             0.0000000000
     22658       183  PMPE      C211          -10.1590850406      -38.5479265309       -6.2222114979  MEMB      183             0.0000000000
     22659       183  PMPE      H11R          -11.1187005229      -38.4930702813       -5.7933660928  MEMB      183             0.0000000000
     22660       183  PMPE      H11S          -10.6759463880      -38.0530154999       -7.0781890517  MEMB      183             0.0000000000
     22661       183  PMPE      C212           -9.4994662233      -37.8918069844       -5.2678102761  MEMB      183             0.0000000000
     22662       183  PMPE      H12R           -8.4263238620      -37.8522248069       -5.3218211881  MEMB      183             0.0000000000
     22663       183  PMPE      H12S           -9.6965798276      -38.5797982200       -4.4220402616  MEMB      183             0.0000000000
     22664       183  PMPE      C213          -10.1876326706      -36.6815184304       -5.5251201158  MEMB      183             0.0000000000
     22665       183  PMPE      H13R          -11.3646842003      -36.7131098823       -5.4444724607  MEMB      183             0.0000000000
     22666       183  PMPE      H13S          -10.0147994997      -36.1333488637       -6.5000690702  MEMB      183             0.0000000000
     22667       183  PMPE      C214           -9.4115329025      -35.9231577399       -4.6175696654  MEMB      183             0.0000000000
     22668       183  PMPE      H14R           -9.3972334315      -35.8743551920       -3.5838046529  MEMB      183             0.0000000000
     22669       183  PMPE      H14S          -10.3066556932      -35.3717069481       -4.8886081536  MEMB      183             0.0000000000
     22670       183  PMPE      C215           -8.0429496737      -35.6509467807       -3.9346675647  MEMB      183             0.0000000000
     22671       183  PMPE      H15R           -7.5747754431      -35.4261906844       -4.8701318353  MEMB      183             0.0000000000
     22672       183  PMPE      H15S           -7.7568939722      -36.5998847309       -3.3642561039  MEMB      183             0.0000000000
     22673       183  PMPE      C216           -7.8364885680      -34.4623613270       -2.8863880891  MEMB      183             0.0000000000
     22674       183  PMPE      H16R           -6.8028460171      -34.3541193040       -2.6581221895  MEMB      183             0.0000000000
     22675       183  PMPE      H16S           -8.1176902179      -33.4236180830       -3.0962619154  MEMB      183             0.0000000000
     22676       183  PMPE      H16T           -8.3793654877      -34.5560925211       -1.9164003751  MEMB      183             0.0000000000
     22677       183  PMPE      C33            -3.0838072273      -39.7325613672      -11.5967060056  MEMB      183             0.0000000000
     22678       183  PMPE      H3X            -2.3442877656      -38.9473082664      -11.3556898131  MEMB      183             0.0000000000
     22679       183  PMPE      H3Y            -2.6726489619      -40.4375123670      -12.4062102100  MEMB      183             0.0000000000
     22680       183  PMPE      C34            -3.2282103334      -40.6200428684      -10.4712000629  MEMB      183             0.0000000000
     22681       183  PMPE      H4X            -2.2787518239      -41.0738311280      -10.6295354009  MEMB      183             0.0000000000
     22682       183  PMPE      H4Y            -3.6469105624      -41.4509485023      -10.9135527888  MEMB      183             0.0000000000
     22683       183  PMPE      C35            -3.8537124481      -40.4019799752       -9.0613443263  MEMB      183             0.0000000000
     22684       183  PMPE      H5X            -3.6801742903      -41.2566117924       -8.3517419289  MEMB      183             0.0000000000
     22685       183  PMPE      H5Y            -4.9522709120      -40.3981089071       -9.1765273331  MEMB      183             0.0000000000
     22686       183  PMPE      C36            -3.3703541863      -39.2281127595       -8.2310851550  MEMB      183             0.0000000000
     22687       183  PMPE      H6X            -3.5075404927      -38.2848382926       -8.7628609383  MEMB      183             0.0000000000
     22688       183  PMPE      H6Y            -2.3223914395      -39.1444975676       -8.0610077007  MEMB      183             0.0000000000
     22689       183  PMPE      C37            -3.7984192966      -39.3835766304       -6.7910494056  MEMB      183             0.0000000000
     22690       183  PMPE      H7X            -3.1856937294      -38.7238759998       -6.1330269856  MEMB      183             0.0000000000
     22691       183  PMPE      H7Y            -3.6563525289      -40.4145992491       -6.3791147142  MEMB      183             0.0000000000
     22692       183  PMPE      C38            -5.2462171425      -39.0522749223       -6.8090559725  MEMB      183             0.0000000000
     22693       183  PMPE      H8X            -5.8261017670      -39.8308850928       -7.3541282219  MEMB      183             0.0000000000
     22694       183  PMPE      H8Y            -5.3863238026      -38.0731297408       -7.3161365918  MEMB      183             0.0000000000
     22695       183  PMPE      C39            -5.7077664883      -38.9888231783       -5.4156242861  MEMB      183             0.0000000000
     22696       183  PMPE      H9X            -6.7073123697      -38.5210277790       -5.4383162037  MEMB      183             0.0000000000
     22697       183  PMPE      H9Y            -5.0222858968      -38.3516096205       -4.8085178793  MEMB      183             0.0000000000
     22698       183  PMPE      C310           -5.8517712612      -40.3745301403       -4.8277816023  MEMB      183             0.0000000000
     22699       183  PMPE      H10X           -4.8966576406      -40.7926902605       -4.4008074568  MEMB      183             0.0000000000
     22700       183  PMPE      H10Y           -6.3546802124      -41.1213486980       -5.4602893724  MEMB      183             0.0000000000
     22701       183  PMPE      C311           -6.8176565491      -40.1462503811       -3.7488535241  MEMB      183             0.0000000000
     22702       183  PMPE      H11X           -7.8219296027      -39.7210000923       -3.8029197857  MEMB      183             0.0000000000
     22703       183  PMPE      H11Y           -6.2341629399      -39.2791944380       -3.3498724733  MEMB      183             0.0000000000
     22704       183  PMPE      C312           -7.0505379110      -41.4128662388       -2.9716177707  MEMB      183             0.0000000000
     22705       183  PMPE      H12X           -6.1151041427      -41.9279270741       -2.6360885816  MEMB      183             0.0000000000
     22706       183  PMPE      H12Y           -7.2174013456      -42.1031143774       -3.8223217076  MEMB      183             0.0000000000
     22707       183  PMPE      C313           -8.2277845717      -41.2059518306       -1.8388915554  MEMB      183             0.0000000000
     22708       183  PMPE      H13X           -7.8921381774      -41.9477874904       -1.1405485637  MEMB      183             0.0000000000
     22709       183  PMPE      H13Y           -9.1211957438      -41.4135677741       -2.3785320035  MEMB      183             0.0000000000
     22710       183  PMPE      C314           -8.5744977594      -40.6310116251       -0.3236999431  MEMB      183             0.0000000000
     22711       183  PMPE      H14X           -9.5295442700      -40.7598382442        0.1928427375  MEMB      183             0.0000000000
     22712       183  PMPE      H14Y           -8.5470634826      -39.5596724333       -0.5247206746  MEMB      183             0.0000000000
     22713       183  PMPE      C315           -7.9116309646      -41.0996452582        0.9753824568  MEMB      183             0.0000000000
     22714       183  PMPE      H15X           -6.9419394841      -41.2646379529        0.6289075432  MEMB      183             0.0000000000
     22715       183  PMPE      H15Y           -7.5522784897      -42.1381535573        0.9415057983  MEMB      183             0.0000000000
     22716       183  PMPE      C316           -7.8745420427      -40.1481985361        2.2627014794  MEMB      183             0.0000000000
     22717       183  PMPE      H16X           -7.0006751114      -40.4319875899        2.8432764610  MEMB      183             0.0000000000
     22718       183  PMPE      H16Y           -8.5630532231      -40.1746834516        3.0495996602  MEMB      183             0.0000000000
     22719       183  PMPE      H16Z           -7.6553690413      -39.0296013836        2.1467927637  MEMB      183             0.0000000000
     22720       184  QMPE      N             -34.6691572524      -16.6789455717      -17.7243722455  MEMB      184             0.0000000000
     22721       184  QMPE      HN1           -34.8284557018      -17.5871707307      -17.2521614513  MEMB      184             0.0000000000
     22722       184  QMPE      HN2           -33.7194757959      -16.2993477068      -17.6144356973  MEMB      184             0.0000000000
     22723       184  QMPE      HN3           -35.4002773955      -16.0261241434      -17.3619612350  MEMB      184             0.0000000000
     22724       184  QMPE      C12           -34.9373494059      -16.8737468514      -19.1838835649  MEMB      184             0.0000000000
     22725       184  QMPE      H12A          -34.0744035040      -17.3877632155      -19.6374789428  MEMB      184             0.0000000000
     22726       184  QMPE      H12B          -35.0533644978      -15.8628345150      -19.6354992463  MEMB      184             0.0000000000
     22727       184  QMPE      C11           -36.2108116948      -17.6823224386      -19.3170746637  MEMB      184             0.0000000000
     22728       184  QMPE      H11A          -36.1412908466      -18.7357111462      -18.9716944993  MEMB      184             0.0000000000
     22729       184  QMPE      H11B          -36.4775500751      -17.7143891518      -20.4139477844  MEMB      184             0.0000000000
     22730       184  QMPE      P             -38.2974821998      -16.2660861289      -19.1693788076  MEMB      184             0.0000000000
     22731       184  QMPE      O13           -39.3459792689      -17.2307951204      -19.4905116469  MEMB      184             0.0000000000
     22732       184  QMPE      O14           -37.6914148499      -15.3948195775      -20.1954168570  MEMB      184             0.0000000000
     22733       184  QMPE      O11           -38.7736159617      -15.3056063677      -18.0838094134  MEMB      184             0.0000000000
     22734       184  QMPE      O12           -37.1483848868      -17.0387029499      -18.4657236485  MEMB      184             0.0000000000
     22735       184  QMPE      C1            -37.7472823701      -14.5660538852      -17.4715087810  MEMB      184             0.0000000000
     22736       184  QMPE      HA            -37.8455538934      -13.5346262141      -17.8311672798  MEMB      184             0.0000000000
     22737       184  QMPE      HB            -36.6831369633      -14.8267590912      -17.6906511665  MEMB      184             0.0000000000
     22738       184  QMPE      C2            -38.0061090187      -14.7251349668      -16.0021806406  MEMB      184             0.0000000000
     22739       184  QMPE      HS            -37.3971150311      -14.0950618949      -15.4834234533  MEMB      184             0.0000000000
     22740       184  QMPE      O21           -37.7120257417      -16.0264817655      -15.5320883430  MEMB      184             0.0000000000
     22741       184  QMPE      C21           -36.6681836730      -16.1922786830      -14.7635650650  MEMB      184             0.0000000000
     22742       184  QMPE      O22           -35.8793566771      -15.4280195507      -14.3237883611  MEMB      184             0.0000000000
     22743       184  QMPE      C22           -36.3543249603      -17.5662773833      -14.5315275928  MEMB      184             0.0000000000
     22744       184  QMPE      H2R           -36.7059643496      -18.0953541529      -15.4262009636  MEMB      184             0.0000000000
     22745       184  QMPE      H2S           -36.8743974109      -17.7373067344      -13.5618317958  MEMB      184             0.0000000000
     22746       184  QMPE      C3            -39.4321803240      -14.3511376588      -15.6454333306  MEMB      184             0.0000000000
     22747       184  QMPE      HX            -40.1961549200      -15.0871904886      -15.9521877728  MEMB      184             0.0000000000
     22748       184  QMPE      HY            -39.7057680507      -13.4574138696      -16.2599725778  MEMB      184             0.0000000000
     22749       184  QMPE      O31           -39.4023092647      -14.0100515128      -14.2300288529  MEMB      184             0.0000000000
     22750       184  QMPE      C31           -39.6365469124      -15.0276289889      -13.4551513504  MEMB      184             0.0000000000
     22751       184  QMPE      O32           -40.0067353303      -16.1184096842      -13.8426771916  MEMB      184             0.0000000000
     22752       184  QMPE      C32           -39.3280484598      -14.7352677366      -11.9968781621  MEMB      184             0.0000000000
     22753       184  QMPE      H2X           -38.7157072754      -13.8129263761      -11.8796848665  MEMB      184             0.0000000000
     22754       184  QMPE      H2Y           -40.3264068422      -14.6944033143      -11.5117870790  MEMB      184             0.0000000000
     22755       184  QMPE      C23           -34.8517592387      -17.7034497085      -14.3116926540  MEMB      184             0.0000000000
     22756       184  QMPE      H3R           -34.2004371844      -17.1759993027      -15.0619214391  MEMB      184             0.0000000000
     22757       184  QMPE      H3S           -34.6479463347      -18.7666195498      -14.4261948733  MEMB      184             0.0000000000
     22758       184  QMPE      C24           -34.4835483145      -17.2811618557      -12.8855370008  MEMB      184             0.0000000000
     22759       184  QMPE      H4R           -34.9139187535      -16.3267242083      -12.5475585047  MEMB      184             0.0000000000
     22760       184  QMPE      H4S           -33.4195958576      -17.2659131702      -12.9956605749  MEMB      184             0.0000000000
     22761       184  QMPE      C25           -34.5655636049      -18.1648677742      -11.6822580194  MEMB      184             0.0000000000
     22762       184  QMPE      H5R           -33.7900240423      -18.8596338789      -11.9309904807  MEMB      184             0.0000000000
     22763       184  QMPE      H5S           -35.5894587662      -18.5435546579      -11.5761157170  MEMB      184             0.0000000000
     22764       184  QMPE      C26           -33.8064244756      -17.8931322260      -10.3890502273  MEMB      184             0.0000000000
     22765       184  QMPE      H6R           -32.7132413504      -17.7320959127      -10.5652134605  MEMB      184             0.0000000000
     22766       184  QMPE      H6S           -33.9298501905      -18.8473134080       -9.8191309715  MEMB      184             0.0000000000
     22767       184  QMPE      C27           -34.4813643212      -16.8463799582       -9.5637221331  MEMB      184             0.0000000000
     22768       184  QMPE      H7R           -35.5726512888      -17.0384594943       -9.6593726657  MEMB      184             0.0000000000
     22769       184  QMPE      H7S           -34.2599725684      -15.8388970036       -9.9685925128  MEMB      184             0.0000000000
     22770       184  QMPE      C28           -34.1702926924      -16.9659715556       -8.0815084026  MEMB      184             0.0000000000
     22771       184  QMPE      H8R           -33.1509392555      -16.5538187442       -7.9601312745  MEMB      184             0.0000000000
     22772       184  QMPE      H8S           -34.1183501961      -18.0372454268       -7.7720936256  MEMB      184             0.0000000000
     22773       184  QMPE      C29           -35.3750711368      -16.2841927822       -7.3630692842  MEMB      184             0.0000000000
     22774       184  QMPE      H9R           -36.3328687778      -16.7645271730       -7.4850594787  MEMB      184             0.0000000000
     22775       184  QMPE      C217          -35.3530460665      -14.7562468318       -7.2023786799  MEMB      184             0.0000000000
     22776       184  QMPE      H17R          -34.4322887698      -14.2832582775       -7.4733706815  MEMB      184             0.0000000000
     22777       184  QMPE      H17S          -36.2714078839      -14.2302868986       -7.2935287926  MEMB      184             0.0000000000
     22778       184  QMPE      C210          -35.3586065221      -15.7132931457       -5.9928979476  MEMB      184             0.0000000000
     22779       184  QMPE      H10R          -36.1896228883      -15.7309948501       -5.2873303648  MEMB      184             0.0000000000
     22780       184  QMPE      C211          -34.1083809743      -15.9476034099       -5.3758224126  MEMB      184             0.0000000000
     22781       184  QMPE      H11R          -33.5992457013      -15.5617968183       -6.2393205216  MEMB      184             0.0000000000
     22782       184  QMPE      H11S          -34.0876735707      -15.0749926714       -4.6702363473  MEMB      184             0.0000000000
     22783       184  QMPE      C212          -33.5552506119      -17.4464207614       -4.9403040154  MEMB      184             0.0000000000
     22784       184  QMPE      H12R          -34.0187073127      -18.1743679144       -5.6461880381  MEMB      184             0.0000000000
     22785       184  QMPE      H12S          -34.2141098064      -17.3731011500       -4.0679789101  MEMB      184             0.0000000000
     22786       184  QMPE      C213          -32.0058395223      -17.8452117960       -4.3451528221  MEMB      184             0.0000000000
     22787       184  QMPE      H13R          -31.2597672401      -17.7130879376       -5.2038213487  MEMB      184             0.0000000000
     22788       184  QMPE      H13S          -31.5281950391      -18.8079858356       -4.4748341212  MEMB      184             0.0000000000
     22789       184  QMPE      C214          -31.4823938003      -17.2856760744       -2.8091366552  MEMB      184             0.0000000000
     22790       184  QMPE      H14R          -32.0251775674      -17.2508879997       -1.8962804215  MEMB      184             0.0000000000
     22791       184  QMPE      H14S          -31.5928314869      -16.2182845405       -2.3970759809  MEMB      184             0.0000000000
     22792       184  QMPE      C215          -30.0607750532      -17.5658002912       -2.7081206633  MEMB      184             0.0000000000
     22793       184  QMPE      H15R          -29.7214330290      -17.8750003870       -3.7267309696  MEMB      184             0.0000000000
     22794       184  QMPE      H15S          -29.8275344111      -18.4955770782       -2.3244486239  MEMB      184             0.0000000000
     22795       184  QMPE      C216          -29.3337667051      -16.6742098343       -1.7452139775  MEMB      184             0.0000000000
     22796       184  QMPE      H16R          -30.0372984842      -16.5103927020       -0.9243963543  MEMB      184             0.0000000000
     22797       184  QMPE      H16S          -28.8873558330      -15.6775803065       -1.8713986969  MEMB      184             0.0000000000
     22798       184  QMPE      H16T          -28.4490238238      -17.2750494739       -1.5997999631  MEMB      184             0.0000000000
     22799       184  QMPE      C33           -38.9440158064      -15.9232944569      -11.1226060130  MEMB      184             0.0000000000
     22800       184  QMPE      H3X           -37.9115979194      -16.2313567020      -11.3462482576  MEMB      184             0.0000000000
     22801       184  QMPE      H3Y           -39.6457651315      -16.7369091400      -11.4192009251  MEMB      184             0.0000000000
     22802       184  QMPE      C34           -39.2027022071      -15.6434246066       -9.6252275577  MEMB      184             0.0000000000
     22803       184  QMPE      H4X           -40.2481143474      -15.2736164140       -9.4778620537  MEMB      184             0.0000000000
     22804       184  QMPE      H4Y           -38.4973362517      -14.8537095210       -9.2832771286  MEMB      184             0.0000000000
     22805       184  QMPE      C35           -39.0889077240      -16.9211225369       -8.7791327058  MEMB      184             0.0000000000
     22806       184  QMPE      H5X           -38.0610487718      -17.3320800247       -8.8802828742  MEMB      184             0.0000000000
     22807       184  QMPE      H5Y           -39.8211789027      -17.6438529403       -9.2046993804  MEMB      184             0.0000000000
     22808       184  QMPE      C36           -39.3539640210      -16.7305624740       -7.2764246557  MEMB      184             0.0000000000
     22809       184  QMPE      H6X           -40.3398831137      -16.2402769352       -7.1300731414  MEMB      184             0.0000000000
     22810       184  QMPE      H6Y           -38.5691519565      -16.0311735804       -6.9020414268  MEMB      184             0.0000000000
     22811       184  QMPE      C37           -39.2985563189      -18.0305815055       -6.4382600211  MEMB      184             0.0000000000
     22812       184  QMPE      H7X           -40.2052788960      -18.6578372316       -6.5908751582  MEMB      184             0.0000000000
     22813       184  QMPE      H7Y           -38.4192796178      -18.6398241300       -6.7454984369  MEMB      184             0.0000000000
     22814       184  QMPE      C38           -39.0914632084      -17.7249238907       -4.9474997656  MEMB      184             0.0000000000
     22815       184  QMPE      H8X           -38.2611607211      -16.9873456877       -4.8962879006  MEMB      184             0.0000000000
     22816       184  QMPE      H8Y           -40.0117454629      -17.2740955207       -4.5160100587  MEMB      184             0.0000000000
     22817       184  QMPE      C39           -38.6621511745      -18.9284452641       -4.1033267947  MEMB      184             0.0000000000
     22818       184  QMPE      H9X           -37.6805616686      -19.3176545653       -4.4548339801  MEMB      184             0.0000000000
     22819       184  QMPE      H9Y           -39.4179862891      -19.7200277961       -4.2233857307  MEMB      184             0.0000000000
     22820       184  QMPE      C310          -38.4586257062      -18.5729362976       -2.6325991549  MEMB      184             0.0000000000
     22821       184  QMPE      H10X          -39.3745004627      -18.1074218635       -2.2042231754  MEMB      184             0.0000000000
     22822       184  QMPE      H10Y          -37.6630631121      -17.7902659881       -2.6153324303  MEMB      184             0.0000000000
     22823       184  QMPE      C311          -37.9089471786      -19.7471141573       -1.8222575971  MEMB      184             0.0000000000
     22824       184  QMPE      H11X          -37.0330764462      -20.1940518963       -2.3183959518  MEMB      184             0.0000000000
     22825       184  QMPE      H11Y          -38.4957909260      -20.6459455101       -1.6311265023  MEMB      184             0.0000000000
     22826       184  QMPE      C312          -37.4108388863      -19.3391509059       -0.4914977009  MEMB      184             0.0000000000
     22827       184  QMPE      H12X          -36.4230990924      -18.8480429915       -0.6514928244  MEMB      184             0.0000000000
     22828       184  QMPE      H12Y          -37.3507249241      -20.2849190535        0.0840560397  MEMB      184             0.0000000000
     22829       184  QMPE      C313          -38.2950697714      -18.5584625561        0.3890671027  MEMB      184             0.0000000000
     22830       184  QMPE      H13X          -38.6197872327      -17.5814123245       -0.0382290100  MEMB      184             0.0000000000
     22831       184  QMPE      H13Y          -39.1792395417      -19.1212795192        0.7766856058  MEMB      184             0.0000000000
     22832       184  QMPE      C314          -37.4338678358      -18.3528722238        1.5725055425  MEMB      184             0.0000000000
     22833       184  QMPE      H14X          -37.1924002171      -19.0544050789        2.3261932987  MEMB      184             0.0000000000
     22834       184  QMPE      H14Y          -38.2107242475      -17.7698563358        2.1422985839  MEMB      184             0.0000000000
     22835       184  QMPE      C315          -35.9140835985      -17.9854846036        1.4571934731  MEMB      184             0.0000000000
     22836       184  QMPE      H15X          -35.1368209279      -18.6412333994        1.1048943923  MEMB      184             0.0000000000
     22837       184  QMPE      H15Y          -35.8796358948      -16.9907955552        0.9701599311  MEMB      184             0.0000000000
     22838       184  QMPE      H15Z          -35.5353964521      -17.9433859183        2.5212300944  MEMB      184             0.0000000000
     22839       185  PMPG      C13           -26.0431786710       31.1412877026      -18.8591053431  MEMB      185             0.0000000000
     22840       185  PMPG      H13A          -26.2046328258       30.5252682128      -17.9462251276  MEMB      185             0.0000000000
     22841       185  PMPG      H13B          -24.9685724364       31.3905864033      -18.9295321585  MEMB      185             0.0000000000
     22842       185  PMPG      OC3           -26.7576964810       32.3659598078      -18.7317690641  MEMB      185             0.0000000000
     22843       185  PMPG      HO3           -26.9471921477       32.4486327595      -17.7945787505  MEMB      185             0.0000000000
     22844       185  PMPG      C12           -26.4581156166       30.3056505514      -20.1006534043  MEMB      185             0.0000000000
     22845       185  PMPG      H12A          -26.0265456058       29.2912743094      -19.9645378407  MEMB      185             0.0000000000
     22846       185  PMPG      OC2           -25.8288249425       30.8188285563      -21.2802462746  MEMB      185             0.0000000000
     22847       185  PMPG      HO2           -26.3548663613       30.4638003321      -22.0063909687  MEMB      185             0.0000000000
     22848       185  PMPG      C11           -28.0044246833       30.1481559592      -20.2473295392  MEMB      185             0.0000000000
     22849       185  PMPG      H11A          -28.2520441414       29.2786343802      -20.8958695669  MEMB      185             0.0000000000
     22850       185  PMPG      H11B          -28.3926026186       31.0453813372      -20.7842874814  MEMB      185             0.0000000000
     22851       185  PMPG      P             -28.8687328495       28.6780937019      -18.1981168882  MEMB      185             0.0000000000
     22852       185  PMPG      O13           -28.0517446244       27.6060432269      -18.8011450734  MEMB      185             0.0000000000
     22853       185  PMPG      O14           -30.3166601084       28.4506222749      -18.0776813446  MEMB      185             0.0000000000
     22854       185  PMPG      O11           -28.2631971706       28.9460559128      -16.7778580474  MEMB      185             0.0000000000
     22855       185  PMPG      O12           -28.6502375289       30.0388107030      -18.9690270247  MEMB      185             0.0000000000
     22856       185  PMPG      C1            -28.6681289640       30.0699807669      -16.0240735398  MEMB      185             0.0000000000
     22857       185  PMPG      HA            -29.7789870170       30.2033714392      -16.0123747534  MEMB      185             0.0000000000
     22858       185  PMPG      HB            -28.2239606833       30.9889467658      -16.4662150212  MEMB      185             0.0000000000
     22859       185  PMPG      C2            -28.2261759834       29.8861880119      -14.5544211723  MEMB      185             0.0000000000
     22860       185  PMPG      HS            -28.1307282845       30.9140369810      -14.1330985207  MEMB      185             0.0000000000
     22861       185  PMPG      O21           -27.0016266057       29.1356631110      -14.3832061441  MEMB      185             0.0000000000
     22862       185  PMPG      C21           -25.9014486674       29.8483273236      -14.4087432855  MEMB      185             0.0000000000
     22863       185  PMPG      O22           -25.7683161654       30.9603987470      -14.8878795921  MEMB      185             0.0000000000
     22864       185  PMPG      C22           -24.8277091789       29.1904590870      -13.5683792838  MEMB      185             0.0000000000
     22865       185  PMPG      H2R           -24.0106000898       28.8320819811      -14.2339251623  MEMB      185             0.0000000000
     22866       185  PMPG      H2S           -25.2509267934       28.3215223812      -13.0362493356  MEMB      185             0.0000000000
     22867       185  PMPG      C3            -29.2907797835       29.1053702879      -13.7384214056  MEMB      185             0.0000000000
     22868       185  PMPG      HX            -29.3600544792       28.0694458203      -14.1418593840  MEMB      185             0.0000000000
     22869       185  PMPG      HY            -30.3165296427       29.5150569765      -13.8339179679  MEMB      185             0.0000000000
     22870       185  PMPG      O31           -28.8520932985       29.0309708108      -12.3752657684  MEMB      185             0.0000000000
     22871       185  PMPG      C31           -29.2738928685       29.9681449614      -11.5532331329  MEMB      185             0.0000000000
     22872       185  PMPG      O32           -30.1414815381       30.7907773426      -11.7573838446  MEMB      185             0.0000000000
     22873       185  PMPG      C32           -28.5195908868       29.8515153744      -10.2469143405  MEMB      185             0.0000000000
     22874       185  PMPG      H2X           -28.9639502358       30.5609185581       -9.5158610496  MEMB      185             0.0000000000
     22875       185  PMPG      H2Y           -27.4394437871       29.9838430119      -10.3890475189  MEMB      185             0.0000000000
     22876       185  PMPG      C23           -24.2022228839       30.1984371173      -12.5944416598  MEMB      185             0.0000000000
     22877       185  PMPG      H3R           -23.7741764996       31.0526639713      -13.1606822109  MEMB      185             0.0000000000
     22878       185  PMPG      H3S           -23.3607432313       29.6439175308      -12.1531154243  MEMB      185             0.0000000000
     22879       185  PMPG      C24           -25.0479584838       30.6415918610      -11.3914724292  MEMB      185             0.0000000000
     22880       185  PMPG      H4R           -25.4195249613       29.7521307955      -10.8528413315  MEMB      185             0.0000000000
     22881       185  PMPG      H4S           -26.0179233711       30.9892745002      -11.7557554723  MEMB      185             0.0000000000
     22882       185  PMPG      C25           -24.3414960274       31.7322779568      -10.5017088053  MEMB      185             0.0000000000
     22883       185  PMPG      H5R           -25.1809870483       32.2658949643      -10.0224750682  MEMB      185             0.0000000000
     22884       185  PMPG      H5S           -23.8004830658       32.3769509489      -11.2289499957  MEMB      185             0.0000000000
     22885       185  PMPG      C26           -23.2947711491       31.5168365100       -9.3569048935  MEMB      185             0.0000000000
     22886       185  PMPG      H6R           -22.6726386203       32.3938263307       -9.1156857254  MEMB      185             0.0000000000
     22887       185  PMPG      H6S           -22.4806663210       30.8820008877       -9.7683046832  MEMB      185             0.0000000000
     22888       185  PMPG      C27           -23.9206246072       31.1149100839       -7.9771692082  MEMB      185             0.0000000000
     22889       185  PMPG      H7R           -24.4891465860       30.2073431523       -8.1297782986  MEMB      185             0.0000000000
     22890       185  PMPG      H7S           -24.7954822747       31.6987736636       -7.6802298593  MEMB      185             0.0000000000
     22891       185  PMPG      C28           -22.9043862044       30.9363396103       -6.8136490244  MEMB      185             0.0000000000
     22892       185  PMPG      H8R           -22.7012534389       31.9112403388       -6.4028776058  MEMB      185             0.0000000000
     22893       185  PMPG      H8S           -21.9743601591       30.3990212143       -7.1831259829  MEMB      185             0.0000000000
     22894       185  PMPG      C29           -23.2912593334       30.1341728470       -5.5943472304  MEMB      185             0.0000000000
     22895       185  PMPG      H9R           -22.8258041332       29.2273367306       -5.8727135947  MEMB      185             0.0000000000
     22896       185  PMPG      C217          -22.9016367978       30.5719285837       -4.1969062333  MEMB      185             0.0000000000
     22897       185  PMPG      H17R          -22.7683015599       29.8822671598       -3.4039248984  MEMB      185             0.0000000000
     22898       185  PMPG      H17S          -22.6195573903       31.5639488150       -4.1543063662  MEMB      185             0.0000000000
     22899       185  PMPG      C210          -24.3418775101       30.4393201532       -4.5128301424  MEMB      185             0.0000000000
     22900       185  PMPG      H10R          -24.8754739125       29.7179679288       -3.8589002820  MEMB      185             0.0000000000
     22901       185  PMPG      C211          -25.2311255870       31.5545781968       -4.7565045767  MEMB      185             0.0000000000
     22902       185  PMPG      H11R          -24.5856710242       32.3865185810       -5.0374293211  MEMB      185             0.0000000000
     22903       185  PMPG      H11S          -26.0313141779       31.3976188245       -5.5197690933  MEMB      185             0.0000000000
     22904       185  PMPG      C212          -25.8485250790       31.5788007673       -3.4097184575  MEMB      185             0.0000000000
     22905       185  PMPG      H12R          -25.0219965238       31.5408024120       -2.6605702555  MEMB      185             0.0000000000
     22906       185  PMPG      H12S          -26.5316730394       30.7210925968       -3.1572181635  MEMB      185             0.0000000000
     22907       185  PMPG      C213          -26.5310977417       32.8505902558       -3.3272590386  MEMB      185             0.0000000000
     22908       185  PMPG      H13R          -25.8759236689       33.7269638398       -3.4770209242  MEMB      185             0.0000000000
     22909       185  PMPG      H13S          -26.7527533868       32.7885039261       -2.2642637017  MEMB      185             0.0000000000
     22910       185  PMPG      C214          -27.7078514825       32.9653960820       -4.2489586893  MEMB      185             0.0000000000
     22911       185  PMPG      H14R          -28.3645830026       32.0570035457       -4.2303285356  MEMB      185             0.0000000000
     22912       185  PMPG      H14S          -27.5392004843       33.1918815187       -5.3213311310  MEMB      185             0.0000000000
     22913       185  PMPG      C215          -28.3555792612       34.1837962921       -3.7558232488  MEMB      185             0.0000000000
     22914       185  PMPG      H15R          -29.2545858532       34.2327416760       -4.3847951601  MEMB      185             0.0000000000
     22915       185  PMPG      H15S          -28.0576234858       35.2373936699       -3.8452487888  MEMB      185             0.0000000000
     22916       185  PMPG      C216          -28.4049411700       34.3559706418       -2.3088473057  MEMB      185             0.0000000000
     22917       185  PMPG      H16R          -28.1031578860       33.8308741512       -1.4694523094  MEMB      185             0.0000000000
     22918       185  PMPG      H16S          -28.6647242106       33.4159567469       -1.6967086062  MEMB      185             0.0000000000
     22919       185  PMPG      H16T          -29.3149415464       34.9759937561       -2.2543792268  MEMB      185             0.0000000000
     22920       185  PMPG      C33           -28.7868644318       28.5068544542       -9.6594615499  MEMB      185             0.0000000000
     22921       185  PMPG      H3X           -29.8465082930       28.3076240885       -9.9692708528  MEMB      185             0.0000000000
     22922       185  PMPG      H3Y           -28.7399156813       28.5576944568       -8.5546135081  MEMB      185             0.0000000000
     22923       185  PMPG      C34           -27.7973987056       27.4033879947      -10.0375397295  MEMB      185             0.0000000000
     22924       185  PMPG      H4X           -26.7992988799       27.8604932263      -10.1380495423  MEMB      185             0.0000000000
     22925       185  PMPG      H4Y           -28.0307720194       26.9636927318      -11.0344848632  MEMB      185             0.0000000000
     22926       185  PMPG      C35           -27.7049661132       26.2018705323       -9.0759009433  MEMB      185             0.0000000000
     22927       185  PMPG      H5X           -27.0639984801       25.5815380255       -9.6202971523  MEMB      185             0.0000000000
     22928       185  PMPG      H5Y           -28.5002574578       25.6739956301       -8.5641047076  MEMB      185             0.0000000000
     22929       185  PMPG      C36           -27.1987523305       26.3205338248       -7.7471211875  MEMB      185             0.0000000000
     22930       185  PMPG      H6X           -27.7439168171       26.9586221429       -7.0431035622  MEMB      185             0.0000000000
     22931       185  PMPG      H6Y           -26.3417802924       26.8370186012       -8.1017063121  MEMB      185             0.0000000000
     22932       185  PMPG      C37           -26.7681936682       25.0719252915       -6.9930693632  MEMB      185             0.0000000000
     22933       185  PMPG      H7X           -25.7173031590       24.9793953042       -7.1048119961  MEMB      185             0.0000000000
     22934       185  PMPG      H7Y           -27.3579344988       24.1920666238       -7.3017542576  MEMB      185             0.0000000000
     22935       185  PMPG      C38           -26.6869027798       25.0887158145       -5.4984959532  MEMB      185             0.0000000000
     22936       185  PMPG      H8X           -26.7742197114       24.0617217419       -5.1143395095  MEMB      185             0.0000000000
     22937       185  PMPG      H8Y           -27.3116908821       25.9072458052       -5.1543331956  MEMB      185             0.0000000000
     22938       185  PMPG      C39           -25.5207360456       25.4918708581       -4.7150439279  MEMB      185             0.0000000000
     22939       185  PMPG      H9X           -24.8880850875       25.9116976031       -5.4690750734  MEMB      185             0.0000000000
     22940       185  PMPG      H9Y           -24.6550325684       24.9868302945       -4.5065355451  MEMB      185             0.0000000000
     22941       185  PMPG      C310          -25.8734838184       25.7831827449       -3.2762667106  MEMB      185             0.0000000000
     22942       185  PMPG      H10X          -25.8602309959       24.7850562175       -2.7752885775  MEMB      185             0.0000000000
     22943       185  PMPG      H10Y          -26.6635123280       26.5284441353       -3.1394391345  MEMB      185             0.0000000000
     22944       185  PMPG      C311          -24.8765778278       26.4890141141       -2.4996419783  MEMB      185             0.0000000000
     22945       185  PMPG      H11X          -24.8195054842       27.4658656954       -2.9840898059  MEMB      185             0.0000000000
     22946       185  PMPG      H11Y          -24.1138652093       25.7066524747       -2.4555440553  MEMB      185             0.0000000000
     22947       185  PMPG      C312          -24.7767794774       27.2012346947       -1.2362562032  MEMB      185             0.0000000000
     22948       185  PMPG      H12X          -23.8321740009       27.5987990831       -0.8908268185  MEMB      185             0.0000000000
     22949       185  PMPG      H12Y          -24.9393828997       26.3845996794       -0.5406934816  MEMB      185             0.0000000000
     22950       185  PMPG      C313          -25.4549829075       28.5307706986       -1.3590898716  MEMB      185             0.0000000000
     22951       185  PMPG      H13X          -26.4693499649       28.2988032167       -1.7368745131  MEMB      185             0.0000000000
     22952       185  PMPG      H13Y          -25.0127649489       29.2568316876       -2.0676251740  MEMB      185             0.0000000000
     22953       185  PMPG      C314          -25.3039635702       29.2339984117       -0.0894571788  MEMB      185             0.0000000000
     22954       185  PMPG      H14X          -24.3052903746       29.6650036488        0.1271050550  MEMB      185             0.0000000000
     22955       185  PMPG      H14Y          -25.4968751526       28.6913877434        0.8332930408  MEMB      185             0.0000000000
     22956       185  PMPG      C315          -26.2819307587       30.2639069204       -0.3529252561  MEMB      185             0.0000000000
     22957       185  PMPG      H15X          -25.7917289182       30.9685490021       -1.0205681169  MEMB      185             0.0000000000
     22958       185  PMPG      H15Y          -26.1352338771       30.6687872644        0.6428457855  MEMB      185             0.0000000000
     22959       185  PMPG      C316          -27.7706221690       30.0185980534       -0.7908335751  MEMB      185             0.0000000000
     22960       185  PMPG      H16X          -28.5345440309       30.8036891196       -0.6541185848  MEMB      185             0.0000000000
     22961       185  PMPG      H16Y          -28.1539626236       29.5668472780        0.0415956651  MEMB      185             0.0000000000
     22962       185  PMPG      H16Z          -28.0829353552       29.4007100040       -1.6145441069  MEMB      185             0.0000000000
     22963       186  PMPE      N             -15.5185046672      -39.6111297619      -20.7353511370  MEMB      186             0.0000000000
     22964       186  PMPE      HN1           -16.1285139626      -39.0111337634      -21.3294314855  MEMB      186             0.0000000000
     22965       186  PMPE      HN2           -14.8808368497      -39.3103308783      -21.4966857654  MEMB      186             0.0000000000
     22966       186  PMPE      HN3           -16.4276719014      -40.1490120007      -20.7244405444  MEMB      186             0.0000000000
     22967       186  PMPE      C12           -15.2076047292      -38.9904688769      -19.3601427980  MEMB      186             0.0000000000
     22968       186  PMPE      H12A          -16.1450699181      -38.7100095158      -18.8414375098  MEMB      186             0.0000000000
     22969       186  PMPE      H12B          -14.6345339189      -38.0480237484      -19.3922440940  MEMB      186             0.0000000000
     22970       186  PMPE      C11           -14.1565307939      -39.7820778848      -18.6782678766  MEMB      186             0.0000000000
     22971       186  PMPE      H11A          -13.5485857378      -39.0936256531      -18.0400350084  MEMB      186             0.0000000000
     22972       186  PMPE      H11B          -13.4544561903      -40.2422498250      -19.4007630089  MEMB      186             0.0000000000
     22973       186  PMPE      P             -15.6867695641      -41.8672181651      -18.6045237454  MEMB      186             0.0000000000
     22974       186  PMPE      O13           -14.7402052405      -42.4194678981      -19.6147687110  MEMB      186             0.0000000000
     22975       186  PMPE      O14           -16.9375568149      -41.2311240200      -19.1084771879  MEMB      186             0.0000000000
     22976       186  PMPE      O11           -15.8814097212      -42.8178897191      -17.4044490593  MEMB      186             0.0000000000
     22977       186  PMPE      O12           -14.8192551641      -40.7392750661      -17.9153513245  MEMB      186             0.0000000000
     22978       186  PMPE      C1            -14.6792475568      -43.1677480081      -16.7053467020  MEMB      186             0.0000000000
     22979       186  PMPE      HA            -13.7860395760      -43.2900676561      -17.3600538707  MEMB      186             0.0000000000
     22980       186  PMPE      HB            -14.8987887405      -44.1162318131      -16.2703818031  MEMB      186             0.0000000000
     22981       186  PMPE      C2            -14.3324870409      -42.3764617981      -15.4269732769  MEMB      186             0.0000000000
     22982       186  PMPE      HS            -14.5895935881      -42.9942653969      -14.5389015322  MEMB      186             0.0000000000
     22983       186  PMPE      O21           -15.0322156102      -41.1716015641      -15.4011797208  MEMB      186             0.0000000000
     22984       186  PMPE      C21           -16.2734449612      -41.1793169503      -15.0900366431  MEMB      186             0.0000000000
     22985       186  PMPE      O22           -16.9012059853      -41.9918832441      -14.4290066954  MEMB      186             0.0000000000
     22986       186  PMPE      C22           -16.6774002550      -39.7962018384      -15.4074161465  MEMB      186             0.0000000000
     22987       186  PMPE      H2R           -17.6191840405      -39.6875170666      -14.9324298552  MEMB      186             0.0000000000
     22988       186  PMPE      H2S           -17.0442021421      -39.5918067900      -16.4192726357  MEMB      186             0.0000000000
     22989       186  PMPE      C3            -12.8353863243      -42.0226731891      -15.3527927013  MEMB      186             0.0000000000
     22990       186  PMPE      HX            -12.5793075218      -41.3589036682      -16.2122974630  MEMB      186             0.0000000000
     22991       186  PMPE      HY            -12.2351417109      -42.9508176977      -15.4613366739  MEMB      186             0.0000000000
     22992       186  PMPE      O31           -12.5781384069      -41.3192019128      -14.1263952975  MEMB      186             0.0000000000
     22993       186  PMPE      C31           -12.1706087128      -42.0684766667      -13.1143052471  MEMB      186             0.0000000000
     22994       186  PMPE      O32           -11.7840803664      -43.2161154417      -13.2250905722  MEMB      186             0.0000000000
     22995       186  PMPE      C32           -12.1724629904      -41.3124085024      -11.7892585021  MEMB      186             0.0000000000
     22996       186  PMPE      H2X           -13.1748159697      -40.9014378909      -11.6231183495  MEMB      186             0.0000000000
     22997       186  PMPE      H2Y           -11.4766661679      -40.4615558286      -11.7600602445  MEMB      186             0.0000000000
     22998       186  PMPE      C23           -15.6823548129      -38.7384171620      -14.8897393200  MEMB      186             0.0000000000
     22999       186  PMPE      H3R           -16.4306976878      -38.0252033175      -14.7698340585  MEMB      186             0.0000000000
     23000       186  PMPE      H3S           -14.9473875125      -38.4787689773      -15.6691863778  MEMB      186             0.0000000000
     23001       186  PMPE      C24           -15.0802697765      -38.6163778127      -13.4784693815  MEMB      186             0.0000000000
     23002       186  PMPE      H4R           -14.4353946554      -37.7718797506      -13.7074068693  MEMB      186             0.0000000000
     23003       186  PMPE      H4S           -14.6722448588      -39.6041684907      -13.1862769348  MEMB      186             0.0000000000
     23004       186  PMPE      C25           -15.4295597186      -37.7619361813      -12.2447111193  MEMB      186             0.0000000000
     23005       186  PMPE      H5R           -16.4589097204      -37.3653396711      -12.4568416144  MEMB      186             0.0000000000
     23006       186  PMPE      H5S           -15.1225713843      -36.8074231965      -11.8223935152  MEMB      186             0.0000000000
     23007       186  PMPE      C26           -14.9577905979      -38.7478394358      -11.0923192294  MEMB      186             0.0000000000
     23008       186  PMPE      H6R           -14.0540417454      -39.2645929293      -11.0405163568  MEMB      186             0.0000000000
     23009       186  PMPE      H6S           -15.3726903265      -39.7278699418      -11.3732082545  MEMB      186             0.0000000000
     23010       186  PMPE      C27           -15.2067605428      -38.3995316653       -9.6505015965  MEMB      186             0.0000000000
     23011       186  PMPE      H7R           -16.1355372704      -37.8348523876       -9.9643660701  MEMB      186             0.0000000000
     23012       186  PMPE      H7S           -15.1350680490      -37.3940304216       -9.1937405643  MEMB      186             0.0000000000
     23013       186  PMPE      C28           -15.2021105156      -39.7492993919       -8.5677056862  MEMB      186             0.0000000000
     23014       186  PMPE      H8R           -15.2949784654      -39.3746918201       -7.5179481163  MEMB      186             0.0000000000
     23015       186  PMPE      H8S           -14.1900048872      -39.9351530927       -8.7331540192  MEMB      186             0.0000000000
     23016       186  PMPE      C29           -16.1914208381      -41.2048965517       -8.4667314262  MEMB      186             0.0000000000
     23017       186  PMPE      H9R           -16.2483183259      -41.7422749359       -9.3725559025  MEMB      186             0.0000000000
     23018       186  PMPE      C217          -17.8835034205      -41.5538242519       -8.0295556448  MEMB      186             0.0000000000
     23019       186  PMPE      H17R          -18.3670992172      -41.5023891741       -8.9559145867  MEMB      186             0.0000000000
     23020       186  PMPE      H17S          -18.5531889551      -40.8107567101       -7.7905863371  MEMB      186             0.0000000000
     23021       186  PMPE      C210          -16.6718569345      -41.6738915879       -7.1803368451  MEMB      186             0.0000000000
     23022       186  PMPE      H10R          -17.0636563859      -42.5887228915       -6.8802068715  MEMB      186             0.0000000000
     23023       186  PMPE      C211          -16.2580574701      -41.1713255717       -5.8474208663  MEMB      186             0.0000000000
     23024       186  PMPE      H11R          -16.6054798547      -40.2067743905       -5.5179786119  MEMB      186             0.0000000000
     23025       186  PMPE      H11S          -15.1886858297      -41.0684003878       -5.9469749220  MEMB      186             0.0000000000
     23026       186  PMPE      C212          -16.5457111722      -42.2918930591       -4.8428457223  MEMB      186             0.0000000000
     23027       186  PMPE      H12R          -16.0261925695      -43.2000774552       -5.2117638377  MEMB      186             0.0000000000
     23028       186  PMPE      H12S          -17.6031500115      -42.6215860697       -4.9355967724  MEMB      186             0.0000000000
     23029       186  PMPE      C213          -15.9752430005      -41.8914943689       -3.4652249685  MEMB      186             0.0000000000
     23030       186  PMPE      H13R          -15.4949678174      -40.8938949314       -3.5731824946  MEMB      186             0.0000000000
     23031       186  PMPE      H13S          -15.3740724204      -42.7256967899       -3.0845635798  MEMB      186             0.0000000000
     23032       186  PMPE      C214          -17.0180720309      -41.5149742862       -2.4561734522  MEMB      186             0.0000000000
     23033       186  PMPE      H14R          -17.7556990507      -42.1106317396       -2.9265590474  MEMB      186             0.0000000000
     23034       186  PMPE      H14S          -17.3441620979      -40.5881494248       -2.8409411844  MEMB      186             0.0000000000
     23035       186  PMPE      C215          -16.9394436864      -41.3064870932       -0.8836836726  MEMB      186             0.0000000000
     23036       186  PMPE      H15R          -16.3396952459      -40.3997912064       -0.7634842505  MEMB      186             0.0000000000
     23037       186  PMPE      H15S          -16.4340279901      -42.1992051025       -0.4652765615  MEMB      186             0.0000000000
     23038       186  PMPE      C216          -18.2130791903      -41.0905413929        0.0346700899  MEMB      186             0.0000000000
     23039       186  PMPE      H16R          -18.8971162295      -40.2595080724       -0.2278515462  MEMB      186             0.0000000000
     23040       186  PMPE      H16S          -18.8216147089      -41.9610664841       -0.0154047327  MEMB      186             0.0000000000
     23041       186  PMPE      H16T          -18.1657221711      -41.2232557221        1.1177555310  MEMB      186             0.0000000000
     23042       186  PMPE      C33           -11.6353052212      -42.1514814986      -10.6734710562  MEMB      186             0.0000000000
     23043       186  PMPE      H3X           -10.5621691159      -41.9125911916      -10.5150002614  MEMB      186             0.0000000000
     23044       186  PMPE      H3Y           -11.7789218300      -43.2076811083      -10.8813622567  MEMB      186             0.0000000000
     23045       186  PMPE      C34           -12.4087791036      -42.0250469215       -9.4115899800  MEMB      186             0.0000000000
     23046       186  PMPE      H4X           -12.0775284428      -42.8534834750       -8.7202757887  MEMB      186             0.0000000000
     23047       186  PMPE      H4Y           -13.4846395816      -41.9341939883       -9.5549279996  MEMB      186             0.0000000000
     23048       186  PMPE      C35           -12.1651791985      -40.7756660934       -8.7300732597  MEMB      186             0.0000000000
     23049       186  PMPE      H5X           -12.3347677503      -39.7238010451       -9.0264121702  MEMB      186             0.0000000000
     23050       186  PMPE      H5Y           -11.1498598678      -40.7568278078       -9.1455045407  MEMB      186             0.0000000000
     23051       186  PMPE      C36           -12.6271591713      -41.0482631288       -7.2769701627  MEMB      186             0.0000000000
     23052       186  PMPE      H6X           -12.0822471043      -41.8772454878       -6.7537678751  MEMB      186             0.0000000000
     23053       186  PMPE      H6Y           -13.6962615954      -41.1811950945       -7.1617155448  MEMB      186             0.0000000000
     23054       186  PMPE      C37           -12.6919103691      -39.8728334847       -6.3817651613  MEMB      186             0.0000000000
     23055       186  PMPE      H7X           -12.7238619092      -38.8563714874       -6.8432253463  MEMB      186             0.0000000000
     23056       186  PMPE      H7Y           -11.6991205088      -40.1329214774       -6.1080762427  MEMB      186             0.0000000000
     23057       186  PMPE      C38           -13.1558778092      -40.0540284572       -4.9655963220  MEMB      186             0.0000000000
     23058       186  PMPE      H8X           -12.9600081692      -41.0411743940       -4.4748591220  MEMB      186             0.0000000000
     23059       186  PMPE      H8Y           -13.9765518790      -39.3335178737       -4.8306300687  MEMB      186             0.0000000000
     23060       186  PMPE      C39           -12.4476448636      -39.4325241910       -3.8717937802  MEMB      186             0.0000000000
     23061       186  PMPE      H9X           -12.1187075762      -38.4848293911       -4.3147180326  MEMB      186             0.0000000000
     23062       186  PMPE      H9Y           -11.3792475674      -39.7331915792       -3.9549376324  MEMB      186             0.0000000000
     23063       186  PMPE      C310          -13.3810713019      -39.2764600060       -2.4972564528  MEMB      186             0.0000000000
     23064       186  PMPE      H10X          -13.0162592358      -39.0734119263       -1.4013110890  MEMB      186             0.0000000000
     23065       186  PMPE      H10Y          -13.6253385289      -40.2083912843       -1.9979424171  MEMB      186             0.0000000000
     23066       186  PMPE      C311          -14.0905762297      -37.9449930071       -2.5775003182  MEMB      186             0.0000000000
     23067       186  PMPE      H11X          -14.7365249368      -38.0277381513       -3.4307366299  MEMB      186             0.0000000000
     23068       186  PMPE      H11Y          -13.6050487579      -36.9282535827       -2.6860471485  MEMB      186             0.0000000000
     23069       186  PMPE      C312          -14.6414693239      -37.6837774404       -1.3060184765  MEMB      186             0.0000000000
     23070       186  PMPE      H12X          -15.2617732527      -38.5692726026       -1.0526821491  MEMB      186             0.0000000000
     23071       186  PMPE      H12Y          -15.1449899860      -36.8167267545       -1.6648068292  MEMB      186             0.0000000000
     23072       186  PMPE      C313          -13.7516863710      -37.0257058783       -0.3062843912  MEMB      186             0.0000000000
     23073       186  PMPE      H13X          -13.2737954716      -36.0597725759       -0.6100972022  MEMB      186             0.0000000000
     23074       186  PMPE      H13Y          -13.0883498842      -37.6897467536        0.2946334822  MEMB      186             0.0000000000
     23075       186  PMPE      C314          -14.6487863127      -36.5897739625        0.6090141333  MEMB      186             0.0000000000
     23076       186  PMPE      H14X          -15.1886569635      -35.6911304204        0.1777678967  MEMB      186             0.0000000000
     23077       186  PMPE      H14Y          -14.0209243635      -36.4268744666        1.4484241922  MEMB      186             0.0000000000
     23078       186  PMPE      C315          -15.4128376852      -37.6726329326        1.1605188463  MEMB      186             0.0000000000
     23079       186  PMPE      H15X          -16.0790512665      -37.8614334460        0.3969024068  MEMB      186             0.0000000000
     23080       186  PMPE      H15Y          -15.8214183135      -37.0476897949        1.9317405742  MEMB      186             0.0000000000
     23081       186  PMPE      C316          -15.0111421772      -39.0815777858        1.5805776970  MEMB      186             0.0000000000
     23082       186  PMPE      H16X          -14.6068914215      -39.7081851362        0.8042300080  MEMB      186             0.0000000000
     23083       186  PMPE      H16Y          -15.9900969426      -39.5809331651        1.8326347270  MEMB      186             0.0000000000
     23084       186  PMPE      H16Z          -14.4877194098      -39.0194819870        2.5635949356  MEMB      186             0.0000000000
     23085       187  POPE      N              26.5692711783      -31.0736193969      -21.5979433540  MEMB      187             0.0000000000
     23086       187  POPE      HN1            27.3275324165      -30.4004232205      -21.3843885110  MEMB      187             0.0000000000
     23087       187  POPE      HN2            26.5661787760      -31.2265691590      -22.6260229286  MEMB      187             0.0000000000
     23088       187  POPE      HN3            25.6593712310      -30.6432588954      -21.3479335965  MEMB      187             0.0000000000
     23089       187  POPE      C12            26.7774503890      -32.3087562829      -20.7515886972  MEMB      187             0.0000000000
     23090       187  POPE      H12A           27.5702388139      -32.9262407937      -21.2027934439  MEMB      187             0.0000000000
     23091       187  POPE      H12B           25.8482386715      -32.9116118762      -20.7543356437  MEMB      187             0.0000000000
     23092       187  POPE      C11            27.1804340411      -31.9263393340      -19.3156190615  MEMB      187             0.0000000000
     23093       187  POPE      H11A           26.3062305723      -31.5633607471      -18.7329625548  MEMB      187             0.0000000000
     23094       187  POPE      H11B           27.9461090624      -31.1183816296      -19.2928783691  MEMB      187             0.0000000000
     23095       187  POPE      P              26.8917614185      -34.2324878398      -18.0899465397  MEMB      187             0.0000000000
     23096       187  POPE      O13            27.5289316220      -35.4598661294      -18.5880687611  MEMB      187             0.0000000000
     23097       187  POPE      O14            25.4655343338      -33.9504492771      -18.3830334614  MEMB      187             0.0000000000
     23098       187  POPE      O11            27.1681533673      -34.0301931377      -16.5515646904  MEMB      187             0.0000000000
     23099       187  POPE      O12            27.7544233801      -33.0410952978      -18.6831450999  MEMB      187             0.0000000000
     23100       187  POPE      C1             28.4812002247      -33.5755743549      -16.2446292680  MEMB      187             0.0000000000
     23101       187  POPE      HA             28.8229000092      -32.6586842846      -16.7581442997  MEMB      187             0.0000000000
     23102       187  POPE      HB             29.1999812003      -34.3697267994      -16.5265112005  MEMB      187             0.0000000000
     23103       187  POPE      C2             28.5344504860      -33.1547747906      -14.7867480410  MEMB      187             0.0000000000
     23104       187  POPE      HS             29.5374394118      -32.7322856276      -14.4867576513  MEMB      187             0.0000000000
     23105       187  POPE      O21            28.2440342499      -34.1892600771      -13.9280116666  MEMB      187             0.0000000000
     23106       187  POPE      C21            29.2865279508      -34.9035849288      -13.9696355597  MEMB      187             0.0000000000
     23107       187  POPE      O22            30.1810831967      -34.8526181919      -14.7511511177  MEMB      187             0.0000000000
     23108       187  POPE      C22            29.1528620208      -35.9979957282      -13.1536176189  MEMB      187             0.0000000000
     23109       187  POPE      H2R            29.1252547726      -36.8363188994      -13.7723296056  MEMB      187             0.0000000000
     23110       187  POPE      H2S            28.0568719289      -36.0635888930      -13.4735146499  MEMB      187             0.0000000000
     23111       187  POPE      C3             27.5425860065      -32.1670936394      -14.4510812762  MEMB      187             0.0000000000
     23112       187  POPE      HX             26.5379164964      -32.4834616041      -14.8267492283  MEMB      187             0.0000000000
     23113       187  POPE      HY             27.9204422200      -31.2134916735      -14.8768320887  MEMB      187             0.0000000000
     23114       187  POPE      O31            27.5475308856      -32.2343036552      -13.0445495814  MEMB      187             0.0000000000
     23115       187  POPE      C31            27.0211898457      -31.2436242381      -12.7273083906  MEMB      187             0.0000000000
     23116       187  POPE      O32            27.1725625256      -30.1107263633      -13.1624484455  MEMB      187             0.0000000000
     23117       187  POPE      C32            26.1960864771      -31.7313009755      -11.7008241144  MEMB      187             0.0000000000
     23118       187  POPE      H2X            25.1934483005      -31.3218457431      -11.6381824835  MEMB      187             0.0000000000
     23119       187  POPE      H2Y            26.9482456130      -31.4445352955      -10.9372604207  MEMB      187             0.0000000000
     23120       187  POPE      C23            29.7318185186      -36.3531192554      -11.5528134263  MEMB      187             0.0000000000
     23121       187  POPE      H3R            30.4097292337      -37.1596523885      -11.6345635215  MEMB      187             0.0000000000
     23122       187  POPE      H3S            29.4800506237      -37.2283242297      -10.9177744093  MEMB      187             0.0000000000
     23123       187  POPE      C24            29.5072464511      -35.5410765598      -10.2587318183  MEMB      187             0.0000000000
     23124       187  POPE      H4R            28.6116711728      -36.0031278360       -9.7129834567  MEMB      187             0.0000000000
     23125       187  POPE      H4S            29.2981405458      -34.5169141704      -10.6551788768  MEMB      187             0.0000000000
     23126       187  POPE      C25            30.1996091787      -35.5478104494       -9.0411664479  MEMB      187             0.0000000000
     23127       187  POPE      H5R            31.2181633031      -35.4046537634       -9.3217428043  MEMB      187             0.0000000000
     23128       187  POPE      H5S            30.0359940177      -36.5253231053       -8.5275123798  MEMB      187             0.0000000000
     23129       187  POPE      C26            29.5960072835      -34.2992725424       -8.4750979883  MEMB      187             0.0000000000
     23130       187  POPE      H6R            28.5069779488      -34.3843748611       -8.2554808556  MEMB      187             0.0000000000
     23131       187  POPE      H6S            29.7299618384      -33.4046208706       -9.1564314149  MEMB      187             0.0000000000
     23132       187  POPE      C27            30.4175007019      -34.1297223297       -7.2978010184  MEMB      187             0.0000000000
     23133       187  POPE      H7R            31.4952504885      -34.1375463177       -7.5970710892  MEMB      187             0.0000000000
     23134       187  POPE      H7S            30.2202468563      -34.9392386849       -6.5591200627  MEMB      187             0.0000000000
     23135       187  POPE      C28            30.2499425910      -32.7545827947       -6.8639035713  MEMB      187             0.0000000000
     23136       187  POPE      H8R            30.2665096302      -31.9636185001       -7.5985609954  MEMB      187             0.0000000000
     23137       187  POPE      H8S            31.1180973704      -32.7180694853       -6.2077134180  MEMB      187             0.0000000000
     23138       187  POPE      C29            28.9623987153      -32.5182286562       -6.3056497957  MEMB      187             0.0000000000
     23139       187  POPE      H91            28.0965353500      -33.0441647914       -6.4903386215  MEMB      187             0.0000000000
     23140       187  POPE      C210           28.7536879198      -32.0609564177       -5.2211077844  MEMB      187             0.0000000000
     23141       187  POPE      H101           27.8461348770      -32.4201276743       -4.8178667880  MEMB      187             0.0000000000
     23142       187  POPE      C211           29.5914059568      -31.7278968546       -4.2170849352  MEMB      187             0.0000000000
     23143       187  POPE      H11R           29.8495255413      -30.7433876957       -3.6931412486  MEMB      187             0.0000000000
     23144       187  POPE      H11S           29.4674280766      -30.6235461092       -4.4804550843  MEMB      187             0.0000000000
     23145       187  POPE      C212           30.0575560069      -33.2201206166       -3.3993572362  MEMB      187             0.0000000000
     23146       187  POPE      H12R           30.9871307093      -32.7093601384       -3.3918961994  MEMB      187             0.0000000000
     23147       187  POPE      H12S           30.5833516145      -33.9126001100       -3.8723211720  MEMB      187             0.0000000000
     23148       187  POPE      C213           29.1943453311      -33.5590836230       -0.8650130881  MEMB      187             0.0000000000
     23149       187  POPE      H13R           29.8056705729      -33.6140085200       -0.0251840598  MEMB      187             0.0000000000
     23150       187  POPE      H13S           29.0409916010      -34.3786320332       -1.4212669186  MEMB      187             0.0000000000
     23151       187  POPE      C214           28.6213976134      -31.9825444276       -0.0489358083  MEMB      187             0.0000000000
     23152       187  POPE      H14R           28.1255376865      -30.9636490572       -0.0855268195  MEMB      187             0.0000000000
     23153       187  POPE      H14S           29.3652428804      -31.1923721824        0.3928656972  MEMB      187             0.0000000000
     23154       187  POPE      C215           27.9495721345      -32.6167920817        0.7144410586  MEMB      187             0.0000000000
     23155       187  POPE      H15R           27.2803646418      -31.8155014254        1.0975467871  MEMB      187             0.0000000000
     23156       187  POPE      H15S           28.8832278651      -32.7466320308        1.3265721161  MEMB      187             0.0000000000
     23157       187  POPE      C216           27.1611345125      -33.7639908611        0.1410147712  MEMB      187             0.0000000000
     23158       187  POPE      H16R           26.9103467988      -34.1774446437        1.0760071306  MEMB      187             0.0000000000
     23159       187  POPE      H16S           27.4900636287      -34.7371493986       -0.2685645622  MEMB      187             0.0000000000
     23160       187  POPE      C217           25.9873446458      -33.2076440083       -0.6084985493  MEMB      187             0.0000000000
     23161       187  POPE      H17R           26.0845038124      -33.1335808004       -1.6488742870  MEMB      187             0.0000000000
     23162       187  POPE      H17S           25.7332702033      -32.1644685507       -0.3858165030  MEMB      187             0.0000000000
     23163       187  POPE      C218           25.0056068505      -34.2309857723       -0.8501117744  MEMB      187             0.0000000000
     23164       187  POPE      H18R           25.6602601809      -35.0389205449       -1.2547525414  MEMB      187             0.0000000000
     23165       187  POPE      H18S           24.3379189661      -33.9097441884       -1.6862228152  MEMB      187             0.0000000000
     23166       187  POPE      H18T           24.5154526057      -34.4913291786        0.0870434346  MEMB      187             0.0000000000
     23167       187  POPE      C33            25.5123223340      -33.0003496841      -11.5544146663  MEMB      187             0.0000000000
     23168       187  POPE      H3X            25.4513923205      -33.0165810543      -10.4826044563  MEMB      187             0.0000000000
     23169       187  POPE      H3Y            26.3655939283      -33.5519778794      -11.8530928552  MEMB      187             0.0000000000
     23170       187  POPE      C34            24.0349398349      -33.1272152453      -11.9828593611  MEMB      187             0.0000000000
     23171       187  POPE      H4X            24.3027614008      -33.0621712424      -13.0477413842  MEMB      187             0.0000000000
     23172       187  POPE      H4Y            23.4119156486      -32.3074223073      -11.5478369241  MEMB      187             0.0000000000
     23173       187  POPE      C35            23.0774858826      -34.3271999800      -11.9238109952  MEMB      187             0.0000000000
     23174       187  POPE      H5X            22.1220338153      -34.0125571066      -12.3540081633  MEMB      187             0.0000000000
     23175       187  POPE      H5Y            22.7040713080      -34.5048547620      -10.8951055666  MEMB      187             0.0000000000
     23176       187  POPE      C36            23.7246800828      -35.4998714895      -12.6904199528  MEMB      187             0.0000000000
     23177       187  POPE      H6X            24.6584553462      -35.1969428245      -13.1244247429  MEMB      187             0.0000000000
     23178       187  POPE      H6Y            23.4760171649      -35.4363496013      -13.7430937967  MEMB      187             0.0000000000
     23179       187  POPE      C37            23.7578119026      -37.0055422835      -12.1952804116  MEMB      187             0.0000000000
     23180       187  POPE      H7X            24.2841311278      -37.6081038422      -12.9192745474  MEMB      187             0.0000000000
     23181       187  POPE      H7Y            22.7134415192      -37.1072442209      -12.3483789988  MEMB      187             0.0000000000
     23182       187  POPE      C38            23.9743019044      -37.6663865927      -10.7616826805  MEMB      187             0.0000000000
     23183       187  POPE      H8X            23.5952868271      -38.6470367329      -10.5699258785  MEMB      187             0.0000000000
     23184       187  POPE      H8Y            23.1658821887      -37.0770813454      -10.3501850576  MEMB      187             0.0000000000
     23185       187  POPE      C39            25.3220490087      -38.1096447700       -9.9802177780  MEMB      187             0.0000000000
     23186       187  POPE      H9X            25.5196904306      -37.1507742677       -9.8606502324  MEMB      187             0.0000000000
     23187       187  POPE      H9Y            26.2364277891      -38.3040243006      -10.4735691779  MEMB      187             0.0000000000
     23188       187  POPE      C310           25.6448981554      -37.8403027838       -8.5226178587  MEMB      187             0.0000000000
     23189       187  POPE      H10X           24.8753149078      -38.4697745049       -8.0962321692  MEMB      187             0.0000000000
     23190       187  POPE      H10Y           25.6505960325      -36.8085435313       -8.1820946931  MEMB      187             0.0000000000
     23191       187  POPE      C311           27.0255952803      -37.6142164201       -7.9488338958  MEMB      187             0.0000000000
     23192       187  POPE      H11X           27.8080467675      -37.2221415437       -8.5763887383  MEMB      187             0.0000000000
     23193       187  POPE      H11Y           27.0819172012      -38.6120365533       -8.0826392984  MEMB      187             0.0000000000
     23194       187  POPE      C312           27.0608216233      -37.1173637842       -6.5017902636  MEMB      187             0.0000000000
     23195       187  POPE      H12X           26.1175013766      -37.3314929781       -5.9948518457  MEMB      187             0.0000000000
     23196       187  POPE      H12Y           27.2414947212      -36.0216564889       -6.4743312661  MEMB      187             0.0000000000
     23197       187  POPE      C313           28.0675815524      -37.8429681105       -5.6702787527  MEMB      187             0.0000000000
     23198       187  POPE      H13X           28.9859934947      -37.7815653214       -6.2405214426  MEMB      187             0.0000000000
     23199       187  POPE      H13Y           27.9641966486      -38.9118696613       -5.6018409481  MEMB      187             0.0000000000
     23200       187  POPE      C314           28.0114195263      -37.4479850862       -4.2264029062  MEMB      187             0.0000000000
     23201       187  POPE      H14X           27.0259587852      -37.4819315027       -3.7325922133  MEMB      187             0.0000000000
     23202       187  POPE      H14Y           28.4442822242      -36.4224650012       -4.1747595710  MEMB      187             0.0000000000
     23203       187  POPE      C315           28.6902404285      -38.4546577620       -3.3564577248  MEMB      187             0.0000000000
     23204       187  POPE      H15X           29.6403744351      -38.2835072652       -3.7155818315  MEMB      187             0.0000000000
     23205       187  POPE      H15Y           28.6016337583      -39.5552470495       -3.4662197778  MEMB      187             0.0000000000
     23206       187  POPE      C316           28.8512704087      -37.9378555061       -1.9820423363  MEMB      187             0.0000000000
     23207       187  POPE      H16X           29.3611520935      -38.7299071342       -1.4551042077  MEMB      187             0.0000000000
     23208       187  POPE      H16Y           27.9175054997      -37.7625082468       -1.4639355416  MEMB      187             0.0000000000
     23209       187  POPE      H16Z           29.4033286333      -36.9741860147       -2.0548305829  MEMB      187             0.0000000000
     23210       188  PMPE      N             -37.6937372361       20.8819247436      -20.8347658835  MEMB      188             0.0000000000
     23211       188  PMPE      HN1           -37.2340977013       20.0042661106      -20.4958522441  MEMB      188             0.0000000000
     23212       188  PMPE      HN2           -38.0325929810       20.7479276117      -21.8072655689  MEMB      188             0.0000000000
     23213       188  PMPE      HN3           -37.0365001624       21.6817626302      -20.8323863666  MEMB      188             0.0000000000
     23214       188  PMPE      C12           -38.7654139468       21.1823508141      -19.8307438764  MEMB      188             0.0000000000
     23215       188  PMPE      H12A          -38.9744900405       22.2470413094      -20.0219277608  MEMB      188             0.0000000000
     23216       188  PMPE      H12B          -38.4057981468       21.3222219651      -18.8104843041  MEMB      188             0.0000000000
     23217       188  PMPE      C11           -39.8721466323       20.0723404306      -19.8855800119  MEMB      188             0.0000000000
     23218       188  PMPE      H11A          -40.2458251744       19.8436039884      -20.9044699031  MEMB      188             0.0000000000
     23219       188  PMPE      H11B          -40.7887314994       20.3265908474      -19.2968024512  MEMB      188             0.0000000000
     23220       188  PMPE      P             -38.7197336751       18.6589601958      -18.1300044460  MEMB      188             0.0000000000
     23221       188  PMPE      O13           -37.4312243730       19.3626596605      -18.2199723591  MEMB      188             0.0000000000
     23222       188  PMPE      O14           -38.7555617706       17.2218786181      -17.8564475787  MEMB      188             0.0000000000
     23223       188  PMPE      O11           -39.7037802636       19.4949939699      -17.2397819333  MEMB      188             0.0000000000
     23224       188  PMPE      O12           -39.3478122239       18.8362258679      -19.5273874373  MEMB      188             0.0000000000
     23225       188  PMPE      C1            -40.4922412589       18.8500675334      -16.2491396613  MEMB      188             0.0000000000
     23226       188  PMPE      HA            -40.3891446990       17.7328704686      -16.2453927892  MEMB      188             0.0000000000
     23227       188  PMPE      HB            -41.5666927580       19.0357844854      -16.4725534699  MEMB      188             0.0000000000
     23228       188  PMPE      C2            -40.0655955636       19.4047536121      -14.8622200666  MEMB      188             0.0000000000
     23229       188  PMPE      HS            -40.3796493228       20.4691499306      -14.7953490686  MEMB      188             0.0000000000
     23230       188  PMPE      O21           -38.6881894483       19.1167335133      -14.6133571977  MEMB      188             0.0000000000
     23231       188  PMPE      C21           -38.0136517774       20.1379573238      -14.1668198122  MEMB      188             0.0000000000
     23232       188  PMPE      O22           -38.4703064946       21.2383996236      -13.8961614789  MEMB      188             0.0000000000
     23233       188  PMPE      C22           -36.5397456038       19.7322918216      -14.0941950449  MEMB      188             0.0000000000
     23234       188  PMPE      H2R           -36.1422446154       19.9006138511      -15.1204499172  MEMB      188             0.0000000000
     23235       188  PMPE      H2S           -36.4634375447       18.6550162329      -13.8456757025  MEMB      188             0.0000000000
     23236       188  PMPE      C3            -40.8131910441       18.7362725559      -13.7878487834  MEMB      188             0.0000000000
     23237       188  PMPE      HX            -40.4113573222       17.7107791146      -14.0041505191  MEMB      188             0.0000000000
     23238       188  PMPE      HY            -41.9092820330       18.8878523060      -14.0158230458  MEMB      188             0.0000000000
     23239       188  PMPE      O31           -40.4967566849       18.9663573559      -12.4282669693  MEMB      188             0.0000000000
     23240       188  PMPE      C31           -41.2386484906       19.9232215431      -11.9390516628  MEMB      188             0.0000000000
     23241       188  PMPE      O32           -42.1015498327       20.5564244433      -12.5179468826  MEMB      188             0.0000000000
     23242       188  PMPE      C32           -40.7237806871       20.1512366307      -10.5499472673  MEMB      188             0.0000000000
     23243       188  PMPE      H2X           -40.6046726027       21.2322364088      -10.4877990296  MEMB      188             0.0000000000
     23244       188  PMPE      H2Y           -39.7049643135       19.7272740496      -10.5013265103  MEMB      188             0.0000000000
     23245       188  PMPE      C23           -35.7104167430       20.5597557311      -13.0881595631  MEMB      188             0.0000000000
     23246       188  PMPE      H3R           -35.7371476637       21.6225858638      -13.4187659208  MEMB      188             0.0000000000
     23247       188  PMPE      H3S           -34.6510145450       20.2219077117      -13.1400919347  MEMB      188             0.0000000000
     23248       188  PMPE      C24           -36.1996058708       20.4786410835      -11.6303019615  MEMB      188             0.0000000000
     23249       188  PMPE      H4R           -37.2148762943       20.9357492331      -11.6004263624  MEMB      188             0.0000000000
     23250       188  PMPE      H4S           -35.5364915148       21.1282692922      -11.0207515339  MEMB      188             0.0000000000
     23251       188  PMPE      C25           -36.2949834444       19.0525053469      -11.0578417239  MEMB      188             0.0000000000
     23252       188  PMPE      H5R           -35.3389755302       18.4918754362      -11.1620764154  MEMB      188             0.0000000000
     23253       188  PMPE      H5S           -37.0553334551       18.5047742203      -11.6536230549  MEMB      188             0.0000000000
     23254       188  PMPE      C26           -36.6560134756       18.9362569640       -9.5739156414  MEMB      188             0.0000000000
     23255       188  PMPE      H6R           -37.4464156140       19.6268783189       -9.2209058416  MEMB      188             0.0000000000
     23256       188  PMPE      H6S           -35.7836782159       19.1924404865       -8.9758928652  MEMB      188             0.0000000000
     23257       188  PMPE      C27           -36.9828510790       17.4927483329       -9.2251585631  MEMB      188             0.0000000000
     23258       188  PMPE      H7R           -36.2343764480       16.7888191109       -9.6254015672  MEMB      188             0.0000000000
     23259       188  PMPE      H7S           -37.9376299736       17.2407900218       -9.7332573323  MEMB      188             0.0000000000
     23260       188  PMPE      C28           -37.0526927442       17.2953909387       -7.7163339401  MEMB      188             0.0000000000
     23261       188  PMPE      H8R           -38.0110472786       17.7983686136       -7.4202174806  MEMB      188             0.0000000000
     23262       188  PMPE      H8S           -36.2321853539       17.7526488526       -7.1556874990  MEMB      188             0.0000000000
     23263       188  PMPE      C29           -37.0116176649       15.8349098936       -7.3323018956  MEMB      188             0.0000000000
     23264       188  PMPE      H9R           -36.3444078266       15.0604986798       -7.7451129712  MEMB      188             0.0000000000
     23265       188  PMPE      C217          -38.3052384650       15.3962458868       -7.8148411652  MEMB      188             0.0000000000
     23266       188  PMPE      H17R          -38.6285664744       14.3923155376       -7.9631072601  MEMB      188             0.0000000000
     23267       188  PMPE      H17S          -38.8932440465       16.2262965588       -8.1681079474  MEMB      188             0.0000000000
     23268       188  PMPE      C210          -38.0002037061       15.4720231046       -6.3098057653  MEMB      188             0.0000000000
     23269       188  PMPE      H10R          -37.7505611080       14.5044046853       -5.8379607418  MEMB      188             0.0000000000
     23270       188  PMPE      C211          -38.6241147062       16.5691877198       -5.4088642458  MEMB      188             0.0000000000
     23271       188  PMPE      H11R          -39.5009994737       16.1850074788       -4.9433390485  MEMB      188             0.0000000000
     23272       188  PMPE      H11S          -39.0940739589       17.4696663692       -5.8518603019  MEMB      188             0.0000000000
     23273       188  PMPE      C212          -37.7824961835       16.8648741553       -4.2332028819  MEMB      188             0.0000000000
     23274       188  PMPE      H12R          -37.0747862006       17.5863496977       -4.6779399044  MEMB      188             0.0000000000
     23275       188  PMPE      H12S          -37.2858605835       15.9089742918       -3.9555079055  MEMB      188             0.0000000000
     23276       188  PMPE      C213          -38.6015627309       17.4370759195       -3.0819136809  MEMB      188             0.0000000000
     23277       188  PMPE      H13R          -37.9173325502       17.5930250529       -2.2222669417  MEMB      188             0.0000000000
     23278       188  PMPE      H13S          -39.4230299033       16.7754099022       -2.7126615840  MEMB      188             0.0000000000
     23279       188  PMPE      C214          -39.2552646269       18.7619089765       -3.3971723669  MEMB      188             0.0000000000
     23280       188  PMPE      H14R          -40.0615146912       18.7807074542       -4.1618849067  MEMB      188             0.0000000000
     23281       188  PMPE      H14S          -38.5000220028       19.5452185471       -3.6555653104  MEMB      188             0.0000000000
     23282       188  PMPE      C215          -39.9873003218       19.1521185667       -2.1722501127  MEMB      188             0.0000000000
     23283       188  PMPE      H15R          -39.1160086754       19.4062170025       -1.4899116408  MEMB      188             0.0000000000
     23284       188  PMPE      H15S          -40.5126249575       18.4274353050       -1.5357029933  MEMB      188             0.0000000000
     23285       188  PMPE      C216          -41.0364723891       20.1918774995       -2.5954125028  MEMB      188             0.0000000000
     23286       188  PMPE      H16R          -41.6151110951       20.4833602351       -1.6925085384  MEMB      188             0.0000000000
     23287       188  PMPE      H16S          -40.3620960805       20.9722568117       -3.0040229140  MEMB      188             0.0000000000
     23288       188  PMPE      H16T          -41.6678385892       20.3649224476       -3.4604550780  MEMB      188             0.0000000000
     23289       188  PMPE      C33           -41.5633423627       19.5848943886       -9.3950860846  MEMB      188             0.0000000000
     23290       188  PMPE      H3X           -41.8088047132       18.5293175927       -9.6084326827  MEMB      188             0.0000000000
     23291       188  PMPE      H3Y           -42.5323505787       20.1165866365       -9.2722429696  MEMB      188             0.0000000000
     23292       188  PMPE      C34           -40.7262057663       19.5358524812       -8.1030547556  MEMB      188             0.0000000000
     23293       188  PMPE      H4X           -39.8238769253       18.9249997292       -8.2987124839  MEMB      188             0.0000000000
     23294       188  PMPE      H4Y           -41.3836109831       19.0298791370       -7.3591091360  MEMB      188             0.0000000000
     23295       188  PMPE      C35           -40.3042397001       20.8729069271       -7.4818941676  MEMB      188             0.0000000000
     23296       188  PMPE      H5X           -41.2000602071       21.0703356889       -6.8900554566  MEMB      188             0.0000000000
     23297       188  PMPE      H5Y           -40.0927263654       21.6862965499       -8.2108097810  MEMB      188             0.0000000000
     23298       188  PMPE      C36           -39.2778186045       20.9287589637       -6.3427372141  MEMB      188             0.0000000000
     23299       188  PMPE      H6X           -38.3473647777       20.4345766979       -6.6712861705  MEMB      188             0.0000000000
     23300       188  PMPE      H6Y           -39.6769968806       20.3918285366       -5.4538751594  MEMB      188             0.0000000000
     23301       188  PMPE      C37           -39.0877018711       22.3788048563       -5.8504559236  MEMB      188             0.0000000000
     23302       188  PMPE      H7X           -40.0986907187       22.7696104871       -5.6658369324  MEMB      188             0.0000000000
     23303       188  PMPE      H7Y           -38.6095580627       23.0369810098       -6.6070428866  MEMB      188             0.0000000000
     23304       188  PMPE      C38           -38.3835943525       22.4876238343       -4.5036273599  MEMB      188             0.0000000000
     23305       188  PMPE      H8X           -38.7618263392       21.6985485987       -3.8380868196  MEMB      188             0.0000000000
     23306       188  PMPE      H8Y           -38.5947006809       23.4737886946       -4.0224580997  MEMB      188             0.0000000000
     23307       188  PMPE      C39           -36.9049812443       22.2441251609       -4.6965556449  MEMB      188             0.0000000000
     23308       188  PMPE      H9X           -36.5739844042       23.0861365926       -5.3416995467  MEMB      188             0.0000000000
     23309       188  PMPE      H9Y           -36.7422074839       21.2810577927       -5.2020265483  MEMB      188             0.0000000000
     23310       188  PMPE      C310          -36.1008074860       22.1595867428       -3.4184692632  MEMB      188             0.0000000000
     23311       188  PMPE      H10X          -36.3322902054       23.0865639769       -3.0051360007  MEMB      188             0.0000000000
     23312       188  PMPE      H10Y          -35.0280158198       22.2151408351       -3.5625533699  MEMB      188             0.0000000000
     23313       188  PMPE      C311          -36.3964309766       21.0337612521       -2.4551103598  MEMB      188             0.0000000000
     23314       188  PMPE      H11X          -36.5615894421       20.1354681092       -3.0777641564  MEMB      188             0.0000000000
     23315       188  PMPE      H11Y          -37.2978895672       21.2241561685       -1.8732600152  MEMB      188             0.0000000000
     23316       188  PMPE      C312          -35.2748716560       20.7994089675       -1.4525508715  MEMB      188             0.0000000000
     23317       188  PMPE      H12X          -35.1439644211       21.6602221060       -0.7604265703  MEMB      188             0.0000000000
     23318       188  PMPE      H12Y          -34.3285219399       20.6694668689       -2.0241463817  MEMB      188             0.0000000000
     23319       188  PMPE      C313          -35.4874684228       19.5186998207       -0.6615673317  MEMB      188             0.0000000000
     23320       188  PMPE      H13X          -34.4755438053       19.2402055640       -0.2995829648  MEMB      188             0.0000000000
     23321       188  PMPE      H13Y          -35.8960532300       18.7062444569       -1.3083305476  MEMB      188             0.0000000000
     23322       188  PMPE      C314          -36.3482159793       19.6219692573        0.5888665954  MEMB      188             0.0000000000
     23323       188  PMPE      H14X          -37.4017614340       19.7113530673        0.2836507100  MEMB      188             0.0000000000
     23324       188  PMPE      H14Y          -36.0564549541       20.4931976096        1.2200992182  MEMB      188             0.0000000000
     23325       188  PMPE      C315          -36.1781585300       18.3293587587        1.3663571074  MEMB      188             0.0000000000
     23326       188  PMPE      H15X          -36.3878695196       18.4940615169        2.4474381229  MEMB      188             0.0000000000
     23327       188  PMPE      H15Y          -35.1153425450       18.0191494053        1.2485851610  MEMB      188             0.0000000000
     23328       188  PMPE      C316          -37.0582459521       17.2013815376        0.8502796855  MEMB      188             0.0000000000
     23329       188  PMPE      H16X          -36.8429670655       16.9059551349       -0.1937871922  MEMB      188             0.0000000000
     23330       188  PMPE      H16Y          -38.1317566251       17.4849689352        0.8907913079  MEMB      188             0.0000000000
     23331       188  PMPE      H16Z          -36.8421837815       16.3222596888        1.4822983846  MEMB      188             0.0000000000
     23332       189  PMPE      N              35.1259272906       23.8663695135      -20.5738536775  MEMB      189             0.0000000000
     23333       189  PMPE      HN1            35.3666597722       24.7664002968      -21.0457715907  MEMB      189             0.0000000000
     23334       189  PMPE      HN2            36.0235750196       23.3792669515      -20.3699062268  MEMB      189             0.0000000000
     23335       189  PMPE      HN3            34.5437082492       23.2665324783      -21.1864193216  MEMB      189             0.0000000000
     23336       189  PMPE      C12            34.4278329095       24.2168586116      -19.3111890319  MEMB      189             0.0000000000
     23337       189  PMPE      H12A           33.9319786279       23.2842293345      -18.9943133358  MEMB      189             0.0000000000
     23338       189  PMPE      H12B           33.6495344281       24.9745951659      -19.5361624963  MEMB      189             0.0000000000
     23339       189  PMPE      C11            35.4404169829       24.7349976367      -18.2779980950  MEMB      189             0.0000000000
     23340       189  PMPE      H11A           36.1042398158       23.8956517828      -17.9699122511  MEMB      189             0.0000000000
     23341       189  PMPE      H11B           34.9046097352       25.0436396079      -17.3802118488  MEMB      189             0.0000000000
     23342       189  PMPE      P              35.5112347500       27.2646619594      -18.9058527275  MEMB      189             0.0000000000
     23343       189  PMPE      O13            34.8208495718       27.1882763905      -20.2110658631  MEMB      189             0.0000000000
     23344       189  PMPE      O14            36.4161690991       28.4031092029      -18.6268592129  MEMB      189             0.0000000000
     23345       189  PMPE      O11            34.3428955685       27.2428764122      -17.8289808431  MEMB      189             0.0000000000
     23346       189  PMPE      O12            36.2070066940       25.8347812116      -18.7365009407  MEMB      189             0.0000000000
     23347       189  PMPE      C1             33.3394441405       28.2859153916      -17.8556205225  MEMB      189             0.0000000000
     23348       189  PMPE      HA             32.3571443094       27.8465920964      -18.1629301971  MEMB      189             0.0000000000
     23349       189  PMPE      HB             33.5730287614       29.1103559620      -18.5499812796  MEMB      189             0.0000000000
     23350       189  PMPE      C2             33.1310809514       28.9935539969      -16.4866694251  MEMB      189             0.0000000000
     23351       189  PMPE      HS             32.6922286220       29.9993748808      -16.5941891578  MEMB      189             0.0000000000
     23352       189  PMPE      O21            34.3930668344       29.0387741564      -15.7433449377  MEMB      189             0.0000000000
     23353       189  PMPE      C21            34.4849013962       29.7318366683      -14.6065826447  MEMB      189             0.0000000000
     23354       189  PMPE      O22            33.6098459531       30.4235774380      -14.1133448851  MEMB      189             0.0000000000
     23355       189  PMPE      C22            35.9248251098       29.6932387213      -14.0840687164  MEMB      189             0.0000000000
     23356       189  PMPE      H2R            36.2388351849       30.7325488977      -13.8586616659  MEMB      189             0.0000000000
     23357       189  PMPE      H2S            36.6380932473       29.2907040813      -14.8352447735  MEMB      189             0.0000000000
     23358       189  PMPE      C3             32.0509952919       28.1744947516      -15.7958835233  MEMB      189             0.0000000000
     23359       189  PMPE      HX             30.9898066741       28.0977567999      -16.0423325155  MEMB      189             0.0000000000
     23360       189  PMPE      HY             32.0000363204       28.7745087839      -14.8581680441  MEMB      189             0.0000000000
     23361       189  PMPE      O31            32.5587103559       26.8222020730      -15.9279640368  MEMB      189             0.0000000000
     23362       189  PMPE      C31            33.3040427989       26.6229833433      -14.8872987171  MEMB      189             0.0000000000
     23363       189  PMPE      O32            33.1499543392       27.3399431057      -13.8938611133  MEMB      189             0.0000000000
     23364       189  PMPE      C32            34.2371766867       25.1673154022      -14.9614589683  MEMB      189             0.0000000000
     23365       189  PMPE      H2X            35.0542293794       25.1280787482      -15.5864043551  MEMB      189             0.0000000000
     23366       189  PMPE      H2Y            33.5131984546       24.9293908987      -15.7811683132  MEMB      189             0.0000000000
     23367       189  PMPE      C23            36.0181929665       28.8784641282      -12.7939243823  MEMB      189             0.0000000000
     23368       189  PMPE      H3R            37.0862373581       28.7317247677      -12.6306738380  MEMB      189             0.0000000000
     23369       189  PMPE      H3S            35.6217447273       27.8467296248      -12.8663986089  MEMB      189             0.0000000000
     23370       189  PMPE      C24            35.4001306549       29.5344385528      -11.5712837998  MEMB      189             0.0000000000
     23371       189  PMPE      H4R            34.3141005328       29.3244215665      -11.5756369468  MEMB      189             0.0000000000
     23372       189  PMPE      H4S            35.5509539114       30.6432277368      -11.5120363020  MEMB      189             0.0000000000
     23373       189  PMPE      C25            36.0299211645       28.8789416705      -10.3684589341  MEMB      189             0.0000000000
     23374       189  PMPE      H5R            37.0837480455       28.9226911374      -10.6193588204  MEMB      189             0.0000000000
     23375       189  PMPE      H5S            36.0603469140       27.7984113261      -10.3212727113  MEMB      189             0.0000000000
     23376       189  PMPE      C26            35.5515104444       29.5242859657       -9.0752632570  MEMB      189             0.0000000000
     23377       189  PMPE      H6R            34.4825678065       29.3076371684       -8.8986572771  MEMB      189             0.0000000000
     23378       189  PMPE      H6S            35.6817563841       30.6264265984       -9.1691738425  MEMB      189             0.0000000000
     23379       189  PMPE      C27            36.2656739898       29.0328336884       -7.8471660681  MEMB      189             0.0000000000
     23380       189  PMPE      H7R            37.3343670364       29.2058442753       -7.9730007223  MEMB      189             0.0000000000
     23381       189  PMPE      H7S            36.3616384461       27.9480247328       -7.7535569835  MEMB      189             0.0000000000
     23382       189  PMPE      C28            35.6422793034       29.6678758149       -6.5732849742  MEMB      189             0.0000000000
     23383       189  PMPE      H8R            34.6447532155       29.3084690578       -6.3997571873  MEMB      189             0.0000000000
     23384       189  PMPE      H8S            35.6523592474       30.7830641310       -6.5681160289  MEMB      189             0.0000000000
     23385       189  PMPE      C29            36.4614915295       29.1989957425       -5.4535558502  MEMB      189             0.0000000000
     23386       189  PMPE      H9R            37.2738610377       28.7136934145       -5.9573798842  MEMB      189             0.0000000000
     23387       189  PMPE      C217           36.0317094083       28.1210468793       -4.4471997934  MEMB      189             0.0000000000
     23388       189  PMPE      H17R           36.7215891757       27.5126550568       -3.9180231080  MEMB      189             0.0000000000
     23389       189  PMPE      H17S           35.0673559420       27.7526670151       -4.6147193651  MEMB      189             0.0000000000
     23390       189  PMPE      C210           36.2259287924       29.5545670193       -4.0057777418  MEMB      189             0.0000000000
     23391       189  PMPE      H10R           36.9905206877       29.9105839982       -3.2877532230  MEMB      189             0.0000000000
     23392       189  PMPE      C211           34.9803670538       30.1231466329       -3.6568258089  MEMB      189             0.0000000000
     23393       189  PMPE      H11R           34.8599509682       29.8676874208       -2.5776895540  MEMB      189             0.0000000000
     23394       189  PMPE      H11S           34.2786746654       29.5923495214       -4.3105047650  MEMB      189             0.0000000000
     23395       189  PMPE      C212           35.0738001335       31.5793981194       -4.0181277645  MEMB      189             0.0000000000
     23396       189  PMPE      H12R           34.1595309841       31.8280829595       -4.5562091212  MEMB      189             0.0000000000
     23397       189  PMPE      H12S           35.9324053130       31.8414815939       -4.7043752128  MEMB      189             0.0000000000
     23398       189  PMPE      C213           35.2093511735       32.3899632630       -2.7654854702  MEMB      189             0.0000000000
     23399       189  PMPE      H13R           34.5785692579       32.3546561482       -1.9731531505  MEMB      189             0.0000000000
     23400       189  PMPE      H13S           35.0163074079       33.4324441555       -2.9056139535  MEMB      189             0.0000000000
     23401       189  PMPE      C214           36.4941901249       32.1992246343       -2.1559059862  MEMB      189             0.0000000000
     23402       189  PMPE      H14R           36.9688293937       32.0782725003       -3.1242786285  MEMB      189             0.0000000000
     23403       189  PMPE      H14S           36.8790968283       31.2940724419       -1.7354311297  MEMB      189             0.0000000000
     23404       189  PMPE      C215           36.8105975942       33.2675537757       -1.1614488762  MEMB      189             0.0000000000
     23405       189  PMPE      H15R           35.9590116896       33.1217738309       -0.4611579333  MEMB      189             0.0000000000
     23406       189  PMPE      H15S           36.6304280923       34.2767321793       -1.0068885453  MEMB      189             0.0000000000
     23407       189  PMPE      C216           38.2430529575       33.6509680970       -0.7776829995  MEMB      189             0.0000000000
     23408       189  PMPE      H16R           38.3909501795       34.4844136989       -0.0700427567  MEMB      189             0.0000000000
     23409       189  PMPE      H16S           38.3868978219       32.5554053589       -0.5125419898  MEMB      189             0.0000000000
     23410       189  PMPE      H16T           39.2513291781       33.3853853265       -0.9970668617  MEMB      189             0.0000000000
     23411       189  PMPE      C33            34.6887136725       23.8578080266      -13.8112140099  MEMB      189             0.0000000000
     23412       189  PMPE      H3X            34.2444089155       22.8618802362      -13.7704213885  MEMB      189             0.0000000000
     23413       189  PMPE      H3Y            34.0714306167       23.5152982695      -12.9215237176  MEMB      189             0.0000000000
     23414       189  PMPE      C34            35.6760941626       24.2098836311      -12.8022381392  MEMB      189             0.0000000000
     23415       189  PMPE      H4X            35.5074184037       25.2543204713      -12.4801825418  MEMB      189             0.0000000000
     23416       189  PMPE      H4Y            36.4701582103       24.1137381676      -13.5487705253  MEMB      189             0.0000000000
     23417       189  PMPE      C35            35.8266502172       23.3316224660      -11.5420739861  MEMB      189             0.0000000000
     23418       189  PMPE      H5X            35.6118964147       22.2613725752      -11.7311787416  MEMB      189             0.0000000000
     23419       189  PMPE      H5Y            35.2195511969       23.5748416157      -10.6458191855  MEMB      189             0.0000000000
     23420       189  PMPE      C36            37.2540076093       23.6535483647      -11.1769574402  MEMB      189             0.0000000000
     23421       189  PMPE      H6X            37.3309267779       24.7664899416      -11.1362359062  MEMB      189             0.0000000000
     23422       189  PMPE      H6Y            37.8290855493       23.2710427114      -12.0501112325  MEMB      189             0.0000000000
     23423       189  PMPE      C37            37.7826728491       23.0629927266       -9.8802820839  MEMB      189             0.0000000000
     23424       189  PMPE      H7X            38.8537731898       23.2958440309       -9.8005411391  MEMB      189             0.0000000000
     23425       189  PMPE      H7Y            37.5330190789       21.9854948262       -9.9097124567  MEMB      189             0.0000000000
     23426       189  PMPE      C38            37.1265178356       23.5916587474       -8.6436582332  MEMB      189             0.0000000000
     23427       189  PMPE      H8X            36.1661260153       23.1253456815       -8.9113912501  MEMB      189             0.0000000000
     23428       189  PMPE      H8Y            37.1858042195       24.6776807952       -8.6810130032  MEMB      189             0.0000000000
     23429       189  PMPE      C39            37.6170498325       23.2754035636       -7.2280638981  MEMB      189             0.0000000000
     23430       189  PMPE      H9X            38.6906678673       23.5125880075       -7.2208308072  MEMB      189             0.0000000000
     23431       189  PMPE      H9Y            37.2990792524       22.2187620372       -7.1677126059  MEMB      189             0.0000000000
     23432       189  PMPE      C310           36.9876105758       23.9471761871       -5.9771110081  MEMB      189             0.0000000000
     23433       189  PMPE      H10X           36.0306070600       23.4939513019       -5.8435586206  MEMB      189             0.0000000000
     23434       189  PMPE      H10Y           36.7907428757       25.0142421930       -6.1451529161  MEMB      189             0.0000000000
     23435       189  PMPE      C311           37.5912025465       23.6186852488       -4.5962156991  MEMB      189             0.0000000000
     23436       189  PMPE      H11X           38.5903010590       24.0688197695       -4.6798804571  MEMB      189             0.0000000000
     23437       189  PMPE      H11Y           37.5851154714       22.5055304097       -4.4726236720  MEMB      189             0.0000000000
     23438       189  PMPE      C312           36.9514773611       24.3016648199       -3.3694590080  MEMB      189             0.0000000000
     23439       189  PMPE      H12X           35.9579753460       23.9825264651       -3.2513969790  MEMB      189             0.0000000000
     23440       189  PMPE      H12Y           36.8267933228       25.3717788817       -3.5594701091  MEMB      189             0.0000000000
     23441       189  PMPE      C313           37.3925786526       23.8964329761       -1.9615301341  MEMB      189             0.0000000000
     23442       189  PMPE      H13X           38.4809790468       24.0490026039       -1.8937298806  MEMB      189             0.0000000000
     23443       189  PMPE      H13Y           37.1375563789       22.8270820377       -1.7524462262  MEMB      189             0.0000000000
     23444       189  PMPE      C314           36.7319070353       24.6373493117       -0.8120404700  MEMB      189             0.0000000000
     23445       189  PMPE      H14X           36.8600518102       24.0354665368        0.1177623975  MEMB      189             0.0000000000
     23446       189  PMPE      H14Y           35.6429288323       24.7691027436       -0.9040609144  MEMB      189             0.0000000000
     23447       189  PMPE      C315           37.3665447741       25.9802710892       -0.6178156055  MEMB      189             0.0000000000
     23448       189  PMPE      H15X           37.1668388125       26.7026233321       -1.4434934191  MEMB      189             0.0000000000
     23449       189  PMPE      H15Y           38.4444131383       25.9106039450       -0.3706242195  MEMB      189             0.0000000000
     23450       189  PMPE      C316           36.7871813856       26.5485771286        0.5568288506  MEMB      189             0.0000000000
     23451       189  PMPE      H16X           37.0323188663       27.6225655257        0.6102713861  MEMB      189             0.0000000000
     23452       189  PMPE      H16Y           37.2714547782       26.3268671432        1.4832078851  MEMB      189             0.0000000000
     23453       189  PMPE      H16Z           35.7001714771       26.2752368410        0.6740782339  MEMB      189             0.0000000000
     23454       190  PMPE      N              29.4154621647       31.3847165788      -21.3463896761  MEMB      190             0.0000000000
     23455       190  PMPE      HN1            29.2976058759       31.2714976559      -22.3724619572  MEMB      190             0.0000000000
     23456       190  PMPE      HN2            29.8353102132       32.3310276868      -21.1705695789  MEMB      190             0.0000000000
     23457       190  PMPE      HN3            30.1055729198       30.7356805720      -20.9232537846  MEMB      190             0.0000000000
     23458       190  PMPE      C12            28.0738737411       31.1802329985      -20.6434515943  MEMB      190             0.0000000000
     23459       190  PMPE      H12A           27.6536671554       30.2272125455      -21.0095011408  MEMB      190             0.0000000000
     23460       190  PMPE      H12B           27.3818157796       31.9869559034      -20.9569374493  MEMB      190             0.0000000000
     23461       190  PMPE      C11            28.1906484304       31.1383057785      -19.1086039519  MEMB      190             0.0000000000
     23462       190  PMPE      H11A           28.6217417806       30.1803987699      -18.7511542091  MEMB      190             0.0000000000
     23463       190  PMPE      H11B           27.1760078029       31.2361296952      -18.6388066137  MEMB      190             0.0000000000
     23464       190  PMPE      P              28.7138130863       33.6053247168      -18.3246806950  MEMB      190             0.0000000000
     23465       190  PMPE      O13            27.4569413413       33.8822201576      -19.0411133093  MEMB      190             0.0000000000
     23466       190  PMPE      O14            29.8897096993       34.4378517295      -18.6204095111  MEMB      190             0.0000000000
     23467       190  PMPE      O11            28.4724133524       33.5743862138      -16.7773714076  MEMB      190             0.0000000000
     23468       190  PMPE      O12            29.0899153307       32.1221610670      -18.6718724292  MEMB      190             0.0000000000
     23469       190  PMPE      C1             29.2477726015       32.7877260043      -15.9222112548  MEMB      190             0.0000000000
     23470       190  PMPE      HA             29.6842377287       33.3852071548      -15.0872923630  MEMB      190             0.0000000000
     23471       190  PMPE      HB             30.0876237693       32.2944830685      -16.4610396523  MEMB      190             0.0000000000
     23472       190  PMPE      C2             28.3352892139       31.7419873137      -15.3197027340  MEMB      190             0.0000000000
     23473       190  PMPE      HS             27.8587452102       31.1315770769      -16.1261060054  MEMB      190             0.0000000000
     23474       190  PMPE      O21            27.3442695014       32.3566598973      -14.4628218353  MEMB      190             0.0000000000
     23475       190  PMPE      C21            26.1637119126       32.5816163817      -15.0593528379  MEMB      190             0.0000000000
     23476       190  PMPE      O22            25.8586726190       32.2617999383      -16.1874634231  MEMB      190             0.0000000000
     23477       190  PMPE      C22            25.1845890426       33.2133251184      -14.0621591199  MEMB      190             0.0000000000
     23478       190  PMPE      H2R            24.9224908658       32.5258173618      -13.2546338123  MEMB      190             0.0000000000
     23479       190  PMPE      H2S            24.2882405925       33.5449820182      -14.6369332899  MEMB      190             0.0000000000
     23480       190  PMPE      C3             29.2756591062       30.8156746623      -14.5489476141  MEMB      190             0.0000000000
     23481       190  PMPE      HX             29.9511893571       30.2478808000      -15.2202946743  MEMB      190             0.0000000000
     23482       190  PMPE      HY             28.6869941778       30.1581421571      -13.9996159383  MEMB      190             0.0000000000
     23483       190  PMPE      O31            29.9333529976       31.4251223553      -13.4827035712  MEMB      190             0.0000000000
     23484       190  PMPE      C31            30.6501666452       30.5391402403      -12.7712303599  MEMB      190             0.0000000000
     23485       190  PMPE      O32            30.9622902453       29.4233753390      -13.0945738509  MEMB      190             0.0000000000
     23486       190  PMPE      C32            30.8951202342       31.1708956569      -11.4842033913  MEMB      190             0.0000000000
     23487       190  PMPE      H2X            31.0971273380       32.1653009013      -11.9454793728  MEMB      190             0.0000000000
     23488       190  PMPE      H2Y            31.7713836549       30.7200652005      -10.9741681371  MEMB      190             0.0000000000
     23489       190  PMPE      C23            25.7931444605       34.4405384329      -13.4408420717  MEMB      190             0.0000000000
     23490       190  PMPE      H3R            25.7229937171       34.9952288180      -14.4149490489  MEMB      190             0.0000000000
     23491       190  PMPE      H3S            26.8557798386       34.2961329698      -13.1117454656  MEMB      190             0.0000000000
     23492       190  PMPE      C24            24.9939885102       35.3026064551      -12.4509699068  MEMB      190             0.0000000000
     23493       190  PMPE      H4R            23.9388748227       35.2696319292      -12.7428840761  MEMB      190             0.0000000000
     23494       190  PMPE      H4S            25.2182005455       36.3913253062      -12.5081127422  MEMB      190             0.0000000000
     23495       190  PMPE      C25            25.3128747138       35.0718766544      -10.9817449556  MEMB      190             0.0000000000
     23496       190  PMPE      H5R            26.3979562824       34.9980212564      -10.8271527712  MEMB      190             0.0000000000
     23497       190  PMPE      H5S            25.0045079424       34.0693059991      -10.6693082062  MEMB      190             0.0000000000
     23498       190  PMPE      C26            24.7740354931       36.2373022802      -10.1271465451  MEMB      190             0.0000000000
     23499       190  PMPE      H6R            23.6863241764       36.2869250082      -10.3087150342  MEMB      190             0.0000000000
     23500       190  PMPE      H6S            25.1598755166       37.2563246921      -10.3898709224  MEMB      190             0.0000000000
     23501       190  PMPE      C27            25.0650937041       36.0264655179       -8.6456826271  MEMB      190             0.0000000000
     23502       190  PMPE      H7R            24.7110467621       35.0469526038       -8.3775125536  MEMB      190             0.0000000000
     23503       190  PMPE      H7S            24.4128567971       36.7401521157       -8.0945819627  MEMB      190             0.0000000000
     23504       190  PMPE      C28            26.5717579306       36.1312674932       -8.3199883986  MEMB      190             0.0000000000
     23505       190  PMPE      H8R            26.7236189018       37.0093903456       -8.9837814612  MEMB      190             0.0000000000
     23506       190  PMPE      H8S            27.3073857832       35.4219034983       -8.6603471646  MEMB      190             0.0000000000
     23507       190  PMPE      C29            26.8950293328       36.4630634883       -6.8694877167  MEMB      190             0.0000000000
     23508       190  PMPE      H9R            26.3131049016       37.2369752507       -6.7230602016  MEMB      190             0.0000000000
     23509       190  PMPE      C217           28.1986651225       36.3920585794       -6.0231583824  MEMB      190             0.0000000000
     23510       190  PMPE      H17R           28.3085800352       37.2418524359       -5.3458654903  MEMB      190             0.0000000000
     23511       190  PMPE      H17S           28.8697486994       36.0029136167       -6.7482629933  MEMB      190             0.0000000000
     23512       190  PMPE      C210           27.0027601568       35.6779111736       -5.6703971007  MEMB      190             0.0000000000
     23513       190  PMPE      H10R           26.4522022574       35.9772176673       -4.7815564559  MEMB      190             0.0000000000
     23514       190  PMPE      C211           27.1567517568       34.3786549376       -6.0269362268  MEMB      190             0.0000000000
     23515       190  PMPE      H11R           27.5524975673       34.1221854542       -7.0221821845  MEMB      190             0.0000000000
     23516       190  PMPE      H11S           26.1326506160       34.4575505509       -6.3047053798  MEMB      190             0.0000000000
     23517       190  PMPE      C212           27.7397185997       33.7923322163       -4.7812548874  MEMB      190             0.0000000000
     23518       190  PMPE      H12R           28.7638399837       34.1551606498       -4.7564749223  MEMB      190             0.0000000000
     23519       190  PMPE      H12S           27.9113718715       32.7339610756       -5.0644121334  MEMB      190             0.0000000000
     23520       190  PMPE      C213           27.0731104369       34.1194260108       -3.3481922537  MEMB      190             0.0000000000
     23521       190  PMPE      H13R           27.2520665616       35.1914638845       -3.1878245078  MEMB      190             0.0000000000
     23522       190  PMPE      H13S           27.5838256635       33.5831115921       -2.5639487163  MEMB      190             0.0000000000
     23523       190  PMPE      C214           25.5523883436       33.9222610214       -3.0117761106  MEMB      190             0.0000000000
     23524       190  PMPE      H14R           25.0287894789       33.0716231225       -2.9604451077  MEMB      190             0.0000000000
     23525       190  PMPE      H14S           25.1677547247       34.2014852913       -3.9546149062  MEMB      190             0.0000000000
     23526       190  PMPE      C215           24.8478226024       34.0123655141       -1.5819523066  MEMB      190             0.0000000000
     23527       190  PMPE      H15R           24.7963898810       34.9164469698       -1.0161282840  MEMB      190             0.0000000000
     23528       190  PMPE      H15S           25.5772489099       33.6387566295       -0.8697745407  MEMB      190             0.0000000000
     23529       190  PMPE      C216           23.3321868894       33.7269523206       -1.4497644766  MEMB      190             0.0000000000
     23530       190  PMPE      H16R           22.7740977138       33.6587190648       -2.4100610594  MEMB      190             0.0000000000
     23531       190  PMPE      H16S           23.2347673898       32.8202173725       -0.8404788402  MEMB      190             0.0000000000
     23532       190  PMPE      H16T           22.8446890682       34.5606895641       -0.8857155334  MEMB      190             0.0000000000
     23533       190  PMPE      C33            29.7709116835       31.4026881867      -10.4642380134  MEMB      190             0.0000000000
     23534       190  PMPE      H3X            29.4943465414       30.3732980206      -10.1494115606  MEMB      190             0.0000000000
     23535       190  PMPE      H3Y            28.9371963610       31.9431944919      -10.9575548602  MEMB      190             0.0000000000
     23536       190  PMPE      C34            30.1468211918       32.1773554131       -9.1790988148  MEMB      190             0.0000000000
     23537       190  PMPE      H4X            30.9422905816       31.6160266376       -8.6309302483  MEMB      190             0.0000000000
     23538       190  PMPE      H4Y            29.2551127738       32.1744929295       -8.5143962483  MEMB      190             0.0000000000
     23539       190  PMPE      C35            30.4083266870       33.6881909648       -9.3064178879  MEMB      190             0.0000000000
     23540       190  PMPE      H5X            29.7229260577       34.2650100744       -9.9288164354  MEMB      190             0.0000000000
     23541       190  PMPE      H5Y            31.1925487156       34.0542118765       -9.9220643708  MEMB      190             0.0000000000
     23542       190  PMPE      C36            30.8809313782       34.2861409804       -8.0170833616  MEMB      190             0.0000000000
     23543       190  PMPE      H6X            30.0269888857       34.3901612598       -7.3498523979  MEMB      190             0.0000000000
     23544       190  PMPE      H6Y            31.2941033490       35.2974364508       -8.2422965736  MEMB      190             0.0000000000
     23545       190  PMPE      C37            31.8794877310       33.4886253268       -7.2203371719  MEMB      190             0.0000000000
     23546       190  PMPE      H7X            32.9016889195       33.3737322373       -7.5249270569  MEMB      190             0.0000000000
     23547       190  PMPE      H7Y            31.7432371312       32.4698732272       -6.8618137776  MEMB      190             0.0000000000
     23548       190  PMPE      C38            32.3679279328       34.4176498652       -6.2903170608  MEMB      190             0.0000000000
     23549       190  PMPE      H8X            32.4851883664       35.4187249923       -6.7385007268  MEMB      190             0.0000000000
     23550       190  PMPE      H8Y            33.2995706185       33.8809616159       -5.8671110799  MEMB      190             0.0000000000
     23551       190  PMPE      C39            31.6184161831       34.9420251714       -5.2190152813  MEMB      190             0.0000000000
     23552       190  PMPE      H9X            30.7011518492       35.4305029303       -5.5560245124  MEMB      190             0.0000000000
     23553       190  PMPE      H9Y            32.1651620373       35.6342280069       -4.5286435171  MEMB      190             0.0000000000
     23554       190  PMPE      C310           31.4923529936       33.6770548718       -4.6569217755  MEMB      190             0.0000000000
     23555       190  PMPE      H10X           32.3620770165       32.9485012721       -4.6019978111  MEMB      190             0.0000000000
     23556       190  PMPE      H10Y           30.6614130195       33.1899245577       -5.2524876445  MEMB      190             0.0000000000
     23557       190  PMPE      C311           31.2213332224       34.1562718981       -3.3224345459  MEMB      190             0.0000000000
     23558       190  PMPE      H11X           30.4014176726       34.9050304719       -3.1871723639  MEMB      190             0.0000000000
     23559       190  PMPE      H11Y           32.0261639941       34.1146668816       -2.5489749543  MEMB      190             0.0000000000
     23560       190  PMPE      C312           30.5062506414       33.0975947001       -2.9540489754  MEMB      190             0.0000000000
     23561       190  PMPE      H12X           31.0062490897       32.1793502083       -3.4648430506  MEMB      190             0.0000000000
     23562       190  PMPE      H12Y           29.6199030148       32.9304914524       -3.5858763478  MEMB      190             0.0000000000
     23563       190  PMPE      C313           30.3387009799       33.3614662732       -1.3738800576  MEMB      190             0.0000000000
     23564       190  PMPE      H13X           31.2728649498       33.1909047574       -0.9085394561  MEMB      190             0.0000000000
     23565       190  PMPE      H13Y           29.9854456218       32.5862031544       -0.7118918802  MEMB      190             0.0000000000
     23566       190  PMPE      C314           29.1182245316       33.8581225085       -0.5953654659  MEMB      190             0.0000000000
     23567       190  PMPE      H14X           28.1571035534       33.2468790725       -0.5013428160  MEMB      190             0.0000000000
     23568       190  PMPE      H14Y           28.9402455651       34.8078478640       -1.0435172923  MEMB      190             0.0000000000
     23569       190  PMPE      C315           29.5937468016       34.0580678363        0.7932541044  MEMB      190             0.0000000000
     23570       190  PMPE      H15X           30.7128984172       34.0016156891        0.8980409774  MEMB      190             0.0000000000
     23571       190  PMPE      H15Y           29.0813229177       33.3025435724        1.3953769592  MEMB      190             0.0000000000
     23572       190  PMPE      C316           29.1629589231       35.3301297491        1.3269046674  MEMB      190             0.0000000000
     23573       190  PMPE      H16X           29.8952899971       36.0371564287        0.8935372209  MEMB      190             0.0000000000
     23574       190  PMPE      H16Y           29.3270385829       35.3445305955        2.3804466059  MEMB      190             0.0000000000
     23575       190  PMPE      H16Z           28.0780574421       35.4542603520        1.2898511004  MEMB      190             0.0000000000
     23576       191  POPE      N              22.9226264262      -42.3139452185      -20.6090318060  MEMB      191             0.0000000000
     23577       191  POPE      HN1            21.9961175722      -42.7861516169      -20.7406837814  MEMB      191             0.0000000000
     23578       191  POPE      HN2            22.8177575468      -41.3055961860      -20.8725737225  MEMB      191             0.0000000000
     23579       191  POPE      HN3            23.6324646998      -42.7583693476      -21.2215111602  MEMB      191             0.0000000000
     23580       191  POPE      C12            23.4714317407      -42.3747277373      -19.2052287735  MEMB      191             0.0000000000
     23581       191  POPE      H12A           23.3462437634      -43.3963097522      -18.7998876803  MEMB      191             0.0000000000
     23582       191  POPE      H12B           22.8990875037      -41.6357585365      -18.5999619286  MEMB      191             0.0000000000
     23583       191  POPE      C11            24.9712964953      -42.0658561280      -19.2121653383  MEMB      191             0.0000000000
     23584       191  POPE      H11A           25.5239470411      -42.7008929948      -19.9424854554  MEMB      191             0.0000000000
     23585       191  POPE      H11B           25.4226890716      -42.3013338722      -18.2186516188  MEMB      191             0.0000000000
     23586       191  POPE      P              25.5030756650      -39.6210095796      -18.4453327260  MEMB      191             0.0000000000
     23587       191  POPE      O13            24.5798348724      -39.8549992618      -17.3181286024  MEMB      191             0.0000000000
     23588       191  POPE      O14            25.5186475460      -38.3230853129      -19.1360176392  MEMB      191             0.0000000000
     23589       191  POPE      O11            26.9628836681      -40.0518434820      -18.0894000327  MEMB      191             0.0000000000
     23590       191  POPE      O12            25.1523729056      -40.7107153687      -19.5606740986  MEMB      191             0.0000000000
     23591       191  POPE      C1             27.8196061253      -40.4669646064      -19.1478723246  MEMB      191             0.0000000000
     23592       191  POPE      HA             28.0681027497      -39.5962226659      -19.7959367841  MEMB      191             0.0000000000
     23593       191  POPE      HB             27.3941397089      -41.2667023198      -19.7841368166  MEMB      191             0.0000000000
     23594       191  POPE      C2             29.0714268084      -41.0719456844      -18.5173900209  MEMB      191             0.0000000000
     23595       191  POPE      HS             29.6267790427      -41.5945394356      -19.3325973968  MEMB      191             0.0000000000
     23596       191  POPE      O21            28.9090118295      -41.9676429592      -17.4402085893  MEMB      191             0.0000000000
     23597       191  POPE      C21            28.2519260248      -43.0040806242      -17.7635211114  MEMB      191             0.0000000000
     23598       191  POPE      O22            27.9327372105      -43.3029061288      -18.9017105707  MEMB      191             0.0000000000
     23599       191  POPE      C22            27.8511794666      -43.6307873913      -16.4556539500  MEMB      191             0.0000000000
     23600       191  POPE      H2R            28.7750155506      -44.0686352919      -15.9993239083  MEMB      191             0.0000000000
     23601       191  POPE      H2S            27.1149797162      -44.4445640500      -16.6288494000  MEMB      191             0.0000000000
     23602       191  POPE      C3             29.8789168314      -40.0162151502      -17.9031573040  MEMB      191             0.0000000000
     23603       191  POPE      HX             30.3648319277      -39.2112691665      -18.4007070610  MEMB      191             0.0000000000
     23604       191  POPE      HY             30.7316673625      -40.5521316252      -17.3861526896  MEMB      191             0.0000000000
     23605       191  POPE      O31            29.1441228270      -39.0452187473      -17.2756867005  MEMB      191             0.0000000000
     23606       191  POPE      C31            29.0684272878      -39.2921439800      -16.0550964900  MEMB      191             0.0000000000
     23607       191  POPE      O32            29.6920665343      -40.1414712568      -15.4251051554  MEMB      191             0.0000000000
     23608       191  POPE      C32            28.3267730871      -38.1277509717      -15.5275204192  MEMB      191             0.0000000000
     23609       191  POPE      H2X            27.7380446665      -37.5895237163      -16.2781036484  MEMB      191             0.0000000000
     23610       191  POPE      H2Y            29.0435056698      -37.3020366588      -15.5044885719  MEMB      191             0.0000000000
     23611       191  POPE      C23            27.2637168613      -42.5724260666      -15.5292672150  MEMB      191             0.0000000000
     23612       191  POPE      H3R            26.2395520081      -42.2982180995      -15.8853901422  MEMB      191             0.0000000000
     23613       191  POPE      H3S            27.8732873050      -41.6736434888      -15.4130806280  MEMB      191             0.0000000000
     23614       191  POPE      C24            27.2195562292      -43.1005041942      -14.1413579685  MEMB      191             0.0000000000
     23615       191  POPE      H4R            27.5836425237      -44.1465187607      -14.2798315651  MEMB      191             0.0000000000
     23616       191  POPE      H4S            26.1321582665      -42.9501973091      -13.9937385817  MEMB      191             0.0000000000
     23617       191  POPE      C25            28.0193133676      -42.4924288952      -13.0155782895  MEMB      191             0.0000000000
     23618       191  POPE      H5R            27.6710232249      -41.4438543606      -12.9624684958  MEMB      191             0.0000000000
     23619       191  POPE      H5S            29.0851328419      -42.6508840647      -13.2696416349  MEMB      191             0.0000000000
     23620       191  POPE      C26            27.7991862446      -43.0684274963      -11.6251112282  MEMB      191             0.0000000000
     23621       191  POPE      H6R            27.9876275712      -44.1654797111      -11.6387011195  MEMB      191             0.0000000000
     23622       191  POPE      H6S            26.7718653924      -42.7949403957      -11.3595167111  MEMB      191             0.0000000000
     23623       191  POPE      C27            28.6082544525      -42.4398142773      -10.5147918059  MEMB      191             0.0000000000
     23624       191  POPE      H7R            29.6137174384      -42.6474297238      -10.8458905347  MEMB      191             0.0000000000
     23625       191  POPE      H7S            28.5319361986      -42.9710269732       -9.5505405162  MEMB      191             0.0000000000
     23626       191  POPE      C28            28.3520974864      -40.9244608788      -10.3878910614  MEMB      191             0.0000000000
     23627       191  POPE      H8R            27.2695529194      -40.7169853488      -10.4843183100  MEMB      191             0.0000000000
     23628       191  POPE      H8S            28.8927287851      -40.5446277817      -11.2758450524  MEMB      191             0.0000000000
     23629       191  POPE      C29            28.9157365859      -40.1834533062       -9.2179878589  MEMB      191             0.0000000000
     23630       191  POPE      H91            29.7639793580      -39.5390510686       -9.4327285976  MEMB      191             0.0000000000
     23631       191  POPE      C210           28.5279282570      -40.1518912799       -7.9592404703  MEMB      191             0.0000000000
     23632       191  POPE      H101           29.0193025705      -39.6121347703       -7.1582782397  MEMB      191             0.0000000000
     23633       191  POPE      C211           27.4322884686      -40.7917776157       -7.3353261858  MEMB      191             0.0000000000
     23634       191  POPE      H11R           28.1431230995      -41.4204585217       -6.8643567502  MEMB      191             0.0000000000
     23635       191  POPE      H11S           26.9053824178      -41.2352670074       -8.1429296129  MEMB      191             0.0000000000
     23636       191  POPE      C212           26.2751122894      -40.3167364762       -6.3795167720  MEMB      191             0.0000000000
     23637       191  POPE      H12R           25.9012004824      -39.4948980159       -6.9468813329  MEMB      191             0.0000000000
     23638       191  POPE      H12S           26.6842695770      -40.1410479278       -5.3838463412  MEMB      191             0.0000000000
     23639       191  POPE      C213           24.8610150182      -40.9246354120       -6.1039350674  MEMB      191             0.0000000000
     23640       191  POPE      H13R           24.3466620493      -41.1572432084       -7.0497333538  MEMB      191             0.0000000000
     23641       191  POPE      H13S           24.3324128016      -40.1655456789       -5.4889417170  MEMB      191             0.0000000000
     23642       191  POPE      C214           24.8121300666      -42.1068389220       -5.1752012431  MEMB      191             0.0000000000
     23643       191  POPE      H14R           25.6926307085      -41.9476879124       -4.5089280192  MEMB      191             0.0000000000
     23644       191  POPE      H14S           24.9243981819      -43.0488008258       -5.7465674154  MEMB      191             0.0000000000
     23645       191  POPE      C215           23.4938083619      -42.7084262606       -4.8122855213  MEMB      191             0.0000000000
     23646       191  POPE      H15R           23.0220143458      -43.2183529568       -5.6923503899  MEMB      191             0.0000000000
     23647       191  POPE      H15S           22.9381985951      -41.9101883001       -4.3230229351  MEMB      191             0.0000000000
     23648       191  POPE      C216           23.6592811713      -43.8513253006       -3.8907628384  MEMB      191             0.0000000000
     23649       191  POPE      H16R           23.7292725838      -44.7513449888       -4.4988938207  MEMB      191             0.0000000000
     23650       191  POPE      H16S           22.7100899457      -44.0532709191       -3.3494451310  MEMB      191             0.0000000000
     23651       191  POPE      C217           24.6890072680      -43.3541723096       -2.9567361765  MEMB      191             0.0000000000
     23652       191  POPE      H17R           25.7310701035      -43.0637351193       -3.1506630626  MEMB      191             0.0000000000
     23653       191  POPE      H17S           25.4565001791      -43.8459574406       -2.3984587621  MEMB      191             0.0000000000
     23654       191  POPE      C218           23.8000831324      -42.7650859272       -1.9962891345  MEMB      191             0.0000000000
     23655       191  POPE      H18R           23.9049977497      -41.6783259627       -2.1469226141  MEMB      191             0.0000000000
     23656       191  POPE      H18S           24.3877361521      -43.1282632443       -1.1676372383  MEMB      191             0.0000000000
     23657       191  POPE      H18T           23.1419836843      -43.1795084444       -1.2186316894  MEMB      191             0.0000000000
     23658       191  POPE      C33            27.6552501019      -38.8043646262      -14.3114158851  MEMB      191             0.0000000000
     23659       191  POPE      H3X            28.3532964748      -39.4379617870      -13.6956430973  MEMB      191             0.0000000000
     23660       191  POPE      H3Y            26.8660571993      -39.4059102234      -14.8051993103  MEMB      191             0.0000000000
     23661       191  POPE      C34            26.8637431638      -37.9824666073      -13.3250183622  MEMB      191             0.0000000000
     23662       191  POPE      H4X            25.9995251996      -38.3388106672      -12.7868371318  MEMB      191             0.0000000000
     23663       191  POPE      H4Y            26.5002180770      -37.1291989227      -13.9400572551  MEMB      191             0.0000000000
     23664       191  POPE      C35            27.6045208550      -37.6939491195      -12.0440531298  MEMB      191             0.0000000000
     23665       191  POPE      H5X            28.6101625728      -38.0163884594      -12.4438305715  MEMB      191             0.0000000000
     23666       191  POPE      H5Y            27.9349063407      -38.4120438451      -11.2871232286  MEMB      191             0.0000000000
     23667       191  POPE      C36            27.2422628725      -36.1437534674      -11.5110917389  MEMB      191             0.0000000000
     23668       191  POPE      H6X            27.6656878036      -35.1588517944      -11.9468286102  MEMB      191             0.0000000000
     23669       191  POPE      H6Y            27.6326396873      -35.3433917749      -10.9963404859  MEMB      191             0.0000000000
     23670       191  POPE      C37            26.1148458657      -35.7198474232      -11.2505752805  MEMB      191             0.0000000000
     23671       191  POPE      H7X            25.8604158627      -36.6708206948      -11.5805885404  MEMB      191             0.0000000000
     23672       191  POPE      H7Y            25.9631633970      -35.1783527407      -12.1158352869  MEMB      191             0.0000000000
     23673       191  POPE      C38            26.0632792754      -35.0935228129       -9.8411126868  MEMB      191             0.0000000000
     23674       191  POPE      H8X            26.7184019290      -34.1954936692       -9.9462082483  MEMB      191             0.0000000000
     23675       191  POPE      H8Y            26.6055308158      -35.4387751667       -8.9724683331  MEMB      191             0.0000000000
     23676       191  POPE      C39            24.5870549024      -34.9361749378       -9.5093336195  MEMB      191             0.0000000000
     23677       191  POPE      H9X            24.3389384771      -35.3267004986      -10.4444431345  MEMB      191             0.0000000000
     23678       191  POPE      H9Y            24.1155459724      -33.9538776457       -9.6290768318  MEMB      191             0.0000000000
     23679       191  POPE      C310           23.7049952786      -35.7360614001       -8.5866507284  MEMB      191             0.0000000000
     23680       191  POPE      H10X           23.5954588551      -36.8185857251       -8.6417080783  MEMB      191             0.0000000000
     23681       191  POPE      H10Y           22.7271397527      -35.4237920036       -8.9650184843  MEMB      191             0.0000000000
     23682       191  POPE      C311           24.1083895562      -35.7160495770       -7.1575842968  MEMB      191             0.0000000000
     23683       191  POPE      H11X           24.9168501569      -35.0076734518       -7.0532174461  MEMB      191             0.0000000000
     23684       191  POPE      H11Y           24.5505281122      -36.6454293445       -6.7961400230  MEMB      191             0.0000000000
     23685       191  POPE      C312           23.0314793739      -35.8404642849       -6.2460251084  MEMB      191             0.0000000000
     23686       191  POPE      H12X           22.4861162465      -36.8118254893       -6.3004244974  MEMB      191             0.0000000000
     23687       191  POPE      H12Y           22.4575366596      -35.0588032820       -6.6699711050  MEMB      191             0.0000000000
     23688       191  POPE      C313           23.4200838085      -35.4619329866       -4.9289490569  MEMB      191             0.0000000000
     23689       191  POPE      H13X           22.5248749621      -35.2943647508       -4.3341907047  MEMB      191             0.0000000000
     23690       191  POPE      H13Y           23.9859293894      -34.5134191278       -4.9991933726  MEMB      191             0.0000000000
     23691       191  POPE      C314           23.9104920803      -36.6632164027       -4.2493022300  MEMB      191             0.0000000000
     23692       191  POPE      H14X           24.7706049175      -37.0318354874       -4.7974872798  MEMB      191             0.0000000000
     23693       191  POPE      H14Y           23.1259630213      -37.4540448918       -4.2606764986  MEMB      191             0.0000000000
     23694       191  POPE      C315           24.2467410612      -36.1328888658       -2.9148526881  MEMB      191             0.0000000000
     23695       191  POPE      H15X           23.3946465448      -35.5477627672       -2.4963970264  MEMB      191             0.0000000000
     23696       191  POPE      H15Y           25.0124907649      -35.3505320326       -3.1513843964  MEMB      191             0.0000000000
     23697       191  POPE      C316           24.7094729199      -37.1926834733       -1.9309413578  MEMB      191             0.0000000000
     23698       191  POPE      H16X           24.9553292028      -38.1348035921       -2.4467228672  MEMB      191             0.0000000000
     23699       191  POPE      H16Y           23.9359829507      -37.3912798016       -1.1697047830  MEMB      191             0.0000000000
     23700       191  POPE      H16Z           25.6115198106      -36.8862197160       -1.3746385787  MEMB      191             0.0000000000
     23701       192  PYPG      C13           -39.5731016080       26.5033120918      -20.0589924429  MEMB      192             0.0000000000
     23702       192  PYPG      H13A          -40.4726141415       26.1535508812      -20.5933771412  MEMB      192             0.0000000000
     23703       192  PYPG      H13B          -39.3514796709       25.6535144896      -19.4077895656  MEMB      192             0.0000000000
     23704       192  PYPG      OC3           -40.1168352581       27.5528648341      -19.2927120438  MEMB      192             0.0000000000
     23705       192  PYPG      HO3           -39.8477560787       28.3870747163      -19.7131668550  MEMB      192             0.0000000000
     23706       192  PYPG      C12           -38.2518753760       26.9851936556      -20.7853754201  MEMB      192             0.0000000000
     23707       192  PYPG      H12A          -38.3853493932       28.0034661946      -21.2352869593  MEMB      192             0.0000000000
     23708       192  PYPG      OC2           -37.8336801089       26.1494621538      -21.8639220610  MEMB      192             0.0000000000
     23709       192  PYPG      HO2           -36.9166548493       26.4051426245      -22.0803983610  MEMB      192             0.0000000000
     23710       192  PYPG      C11           -37.1303842921       27.1007195576      -19.7569963614  MEMB      192             0.0000000000
     23711       192  PYPG      H11A          -36.1959665619       27.4777181076      -20.2176514858  MEMB      192             0.0000000000
     23712       192  PYPG      H11B          -36.9300423858       26.0895947938      -19.3326217889  MEMB      192             0.0000000000
     23713       192  PYPG      P             -36.7246031753       28.1875711107      -17.4276349802  MEMB      192             0.0000000000
     23714       192  PYPG      O13           -37.1503677827       29.4478688129      -16.7850274978  MEMB      192             0.0000000000
     23715       192  PYPG      O14           -35.3052915999       27.9947308217      -17.7767586191  MEMB      192             0.0000000000
     23716       192  PYPG      O11           -37.1651797163       26.9730345347      -16.5412157806  MEMB      192             0.0000000000
     23717       192  PYPG      O12           -37.5589278974       28.0116023480      -18.7576540061  MEMB      192             0.0000000000
     23718       192  PYPG      C1            -38.5112455120       26.5444996483      -16.3906701522  MEMB      192             0.0000000000
     23719       192  PYPG      HA            -38.6366475577       25.6061046359      -16.9735085742  MEMB      192             0.0000000000
     23720       192  PYPG      HB            -39.2496198434       27.2781432584      -16.7997432911  MEMB      192             0.0000000000
     23721       192  PYPG      C2            -38.8440961457       26.2540717248      -14.8892845593  MEMB      192             0.0000000000
     23722       192  PYPG      HS            -39.8731883393       25.8238368305      -14.8487296133  MEMB      192             0.0000000000
     23723       192  PYPG      O21           -38.7519337352       27.4367862252      -14.0742113177  MEMB      192             0.0000000000
     23724       192  PYPG      C21           -39.7374391163       28.3153567298      -14.1364255309  MEMB      192             0.0000000000
     23725       192  PYPG      O22           -40.7401132939       28.2397130166      -14.8229786108  MEMB      192             0.0000000000
     23726       192  PYPG      C22           -39.5005372362       29.3637171101      -13.0235329745  MEMB      192             0.0000000000
     23727       192  PYPG      H2R           -39.8558785887       30.3546090106      -13.3767291454  MEMB      192             0.0000000000
     23728       192  PYPG      H2S           -38.4163912086       29.4289799757      -12.8220895911  MEMB      192             0.0000000000
     23729       192  PYPG      C3            -37.9239939498       25.1355170362      -14.2585764859  MEMB      192             0.0000000000
     23730       192  PYPG      HX            -38.1464876125       24.2616554486      -14.9073949378  MEMB      192             0.0000000000
     23731       192  PYPG      HY            -38.2399165296       24.8815049528      -13.2238606259  MEMB      192             0.0000000000
     23732       192  PYPG      O31           -36.5028103760       25.3464150709      -14.3196511759  MEMB      192             0.0000000000
     23733       192  PYPG      C31           -35.9401248228       26.0503676936      -13.3558941224  MEMB      192             0.0000000000
     23734       192  PYPG      O32           -36.4180730190       26.2948323128      -12.2568441817  MEMB      192             0.0000000000
     23735       192  PYPG      C32           -34.6492420831       26.6342647125      -13.9583086670  MEMB      192             0.0000000000
     23736       192  PYPG      H2X           -33.7792182384       25.9827332251      -13.9668116938  MEMB      192             0.0000000000
     23737       192  PYPG      H2Y           -34.7711403493       26.6520675782      -15.0489765675  MEMB      192             0.0000000000
     23738       192  PYPG      C23           -40.1548462042       29.0803462960      -11.6523808474  MEMB      192             0.0000000000
     23739       192  PYPG      H3R           -39.6002630268       28.3272495185      -11.0561761899  MEMB      192             0.0000000000
     23740       192  PYPG      H3S           -41.1277871689       28.6130213139      -11.7689274223  MEMB      192             0.0000000000
     23741       192  PYPG      C24           -40.3188170871       30.3780044399      -10.8593921818  MEMB      192             0.0000000000
     23742       192  PYPG      H4R           -40.8816508686       31.1292068458      -11.4710310125  MEMB      192             0.0000000000
     23743       192  PYPG      H4S           -39.3264819894       30.7919083798      -10.5978257269  MEMB      192             0.0000000000
     23744       192  PYPG      C25           -40.9689610456       30.0983698220       -9.5212125942  MEMB      192             0.0000000000
     23745       192  PYPG      H5R           -40.6626418284       29.1403997493       -9.0753895007  MEMB      192             0.0000000000
     23746       192  PYPG      H5S           -42.0307340472       30.2051949752       -9.6743104231  MEMB      192             0.0000000000
     23747       192  PYPG      C26           -41.0003079346       31.1982364588       -8.5285580359  MEMB      192             0.0000000000
     23748       192  PYPG      H6R           -41.7813590443       31.8626457207       -9.0102598856  MEMB      192             0.0000000000
     23749       192  PYPG      H6S           -39.9437517098       31.4569317838       -8.5178612750  MEMB      192             0.0000000000
     23750       192  PYPG      C27           -41.4608905768       31.0973575492       -7.0977936141  MEMB      192             0.0000000000
     23751       192  PYPG      H7R           -42.5161215991       31.1553999977       -7.3030287584  MEMB      192             0.0000000000
     23752       192  PYPG      H7S           -41.4453804212       31.8811862278       -6.3732864569  MEMB      192             0.0000000000
     23753       192  PYPG      C28           -40.6457430458       30.0871859424       -6.3183097841  MEMB      192             0.0000000000
     23754       192  PYPG      H8R           -39.6357985631       30.4838250938       -6.4054478532  MEMB      192             0.0000000000
     23755       192  PYPG      H8S           -40.7193929145       29.1676180786       -6.8904669304  MEMB      192             0.0000000000
     23756       192  PYPG      C29           -40.8401659956       29.8644210377       -4.8442977341  MEMB      192             0.0000000000
     23757       192  PYPG      H9R           -41.4810233207       30.7303508044       -4.5090106584  MEMB      192             0.0000000000
     23758       192  PYPG      C210          -40.9317941247       28.7180091378       -4.1529125876  MEMB      192             0.0000000000
     23759       192  PYPG      H10R          -41.4230929546       28.6698642571       -3.1683889553  MEMB      192             0.0000000000
     23760       192  PYPG      C211          -40.8922784361       27.3501963404       -4.7522223430  MEMB      192             0.0000000000
     23761       192  PYPG      H11R          -41.4893248507       27.1969567983       -5.6822144585  MEMB      192             0.0000000000
     23762       192  PYPG      H11S          -41.3404279393       26.6127928745       -4.0647032373  MEMB      192             0.0000000000
     23763       192  PYPG      C212          -39.4965402992       27.0509008375       -4.9867177086  MEMB      192             0.0000000000
     23764       192  PYPG      H12R          -39.2280819006       27.7398588179       -5.8187888372  MEMB      192             0.0000000000
     23765       192  PYPG      H12S          -39.5222405617       25.9904807381       -5.3136973297  MEMB      192             0.0000000000
     23766       192  PYPG      C213          -38.7148893189       27.2825717019       -3.7000011753  MEMB      192             0.0000000000
     23767       192  PYPG      H13R          -38.6875364512       28.3573217278       -3.4072426834  MEMB      192             0.0000000000
     23768       192  PYPG      H13S          -37.6779104321       26.9838551096       -3.8959551851  MEMB      192             0.0000000000
     23769       192  PYPG      C214          -39.2689879309       26.5475132449       -2.4887150965  MEMB      192             0.0000000000
     23770       192  PYPG      H14R          -40.3204175680       26.7786146169       -2.2123136114  MEMB      192             0.0000000000
     23771       192  PYPG      H14S          -39.1932376140       25.4428425494       -2.6508188496  MEMB      192             0.0000000000
     23772       192  PYPG      C215          -38.4581251560       26.9145534111       -1.2717791187  MEMB      192             0.0000000000
     23773       192  PYPG      H15R          -37.3760786823       26.9748563350       -1.4980491976  MEMB      192             0.0000000000
     23774       192  PYPG      H15S          -38.7983772441       26.0562418196       -0.6812816133  MEMB      192             0.0000000000
     23775       192  PYPG      C216          -38.8648864337       28.0626652618       -0.3900427332  MEMB      192             0.0000000000
     23776       192  PYPG      H16R          -39.9700334749       28.0405656294       -0.3399547986  MEMB      192             0.0000000000
     23777       192  PYPG      H16S          -38.4748442900       29.0086880634       -0.8114323575  MEMB      192             0.0000000000
     23778       192  PYPG      H16T          -38.4699242103       27.9039589976        0.6434521729  MEMB      192             0.0000000000
     23779       192  PYPG      C33           -34.3528186685       28.0204336604      -13.3582322777  MEMB      192             0.0000000000
     23780       192  PYPG      H3X           -35.3091445905       28.5460383175      -13.1668631834  MEMB      192             0.0000000000
     23781       192  PYPG      H3Y           -33.7822631939       28.5696538760      -14.1376531220  MEMB      192             0.0000000000
     23782       192  PYPG      C34           -33.5046434011       28.0389940292      -12.0813363616  MEMB      192             0.0000000000
     23783       192  PYPG      H4X           -32.7489136758       27.2676871171      -12.2693540397  MEMB      192             0.0000000000
     23784       192  PYPG      H4Y           -34.0811777578       27.7551966756      -11.1694583051  MEMB      192             0.0000000000
     23785       192  PYPG      C35           -32.7728983202       29.3581533684      -11.8347622801  MEMB      192             0.0000000000
     23786       192  PYPG      H5X           -31.9789389977       29.5094523282      -12.5898146544  MEMB      192             0.0000000000
     23787       192  PYPG      H5Y           -32.2695288933       29.2996427557      -10.8429666298  MEMB      192             0.0000000000
     23788       192  PYPG      C36           -33.7003140660       30.5600374827      -11.8311316982  MEMB      192             0.0000000000
     23789       192  PYPG      H6X           -34.2604172210       30.6511333362      -12.7999480460  MEMB      192             0.0000000000
     23790       192  PYPG      H6Y           -33.0818535342       31.4914923394      -11.7910732452  MEMB      192             0.0000000000
     23791       192  PYPG      C37           -34.7615728359       30.4145179553      -10.6987738841  MEMB      192             0.0000000000
     23792       192  PYPG      H7X           -35.2663074881       31.4000188655      -10.7179043153  MEMB      192             0.0000000000
     23793       192  PYPG      H7Y           -35.4676095486       29.6347012830      -10.9949100581  MEMB      192             0.0000000000
     23794       192  PYPG      C38           -34.4593594524       29.9308643137       -9.2481001240  MEMB      192             0.0000000000
     23795       192  PYPG      H8X           -33.3803423185       30.1702080251       -9.2539896150  MEMB      192             0.0000000000
     23796       192  PYPG      H8Y           -34.0238941712       28.9482836877       -8.9897190666  MEMB      192             0.0000000000
     23797       192  PYPG      C39           -35.4968899502       30.5410363737       -8.1168884580  MEMB      192             0.0000000000
     23798       192  PYPG      H9X           -35.8327613783       31.6272669442       -8.0829324405  MEMB      192             0.0000000000
     23799       192  PYPG      H9Y           -35.1657730483       30.6804773367       -7.0895006489  MEMB      192             0.0000000000
     23800       192  PYPG      C310          -36.6971938194       29.8613544483       -8.0255767420  MEMB      192             0.0000000000
     23801       192  PYPG      H10X          -36.1911552304       28.9192077019       -8.3115234256  MEMB      192             0.0000000000
     23802       192  PYPG      H10Y          -37.2355123757       30.4464234016       -8.8140677029  MEMB      192             0.0000000000
     23803       192  PYPG      C311          -37.1007619910       29.9443404172       -6.5759617555  MEMB      192             0.0000000000
     23804       192  PYPG      H11X          -36.3128144808       29.6333577302       -5.8632663532  MEMB      192             0.0000000000
     23805       192  PYPG      H11Y          -37.9437882619       29.2705410260       -6.4779248693  MEMB      192             0.0000000000
     23806       192  PYPG      C312          -37.4262613844       31.2971913506       -6.0291375769  MEMB      192             0.0000000000
     23807       192  PYPG      H12X          -36.5495961718       31.8983647024       -5.8510359326  MEMB      192             0.0000000000
     23808       192  PYPG      H12Y          -37.9740072585       31.8118321070       -6.8490509150  MEMB      192             0.0000000000
     23809       192  PYPG      C313          -37.7875314456       31.0724932532       -4.5357567492  MEMB      192             0.0000000000
     23810       192  PYPG      H13X          -38.1293094954       30.0555861602       -4.3871990241  MEMB      192             0.0000000000
     23811       192  PYPG      H13Y          -36.9237521697       31.4456060138       -3.9246739365  MEMB      192             0.0000000000
     23812       192  PYPG      C314          -39.0285342304       31.7100106281       -4.0947779630  MEMB      192             0.0000000000
     23813       192  PYPG      H14X          -38.5263291211       32.4575579542       -4.5050512162  MEMB      192             0.0000000000
     23814       192  PYPG      H14Y          -39.8993223561       31.8252000189       -4.6950400822  MEMB      192             0.0000000000
     23815       192  PYPG      C315          -39.6527848318       32.0600488633       -2.8636190650  MEMB      192             0.0000000000
     23816       192  PYPG      H15X          -40.0919578161       31.0854391643       -2.6258655921  MEMB      192             0.0000000000
     23817       192  PYPG      H15Y          -39.0385895423       32.3414717257       -2.0013480524  MEMB      192             0.0000000000
     23818       192  PYPG      C316          -40.7986210280       33.0357136082       -3.2510660431  MEMB      192             0.0000000000
     23819       192  PYPG      H16X          -41.2419952036       32.4764786646       -2.5672119387  MEMB      192             0.0000000000
     23820       192  PYPG      H16Y          -41.5326765214       33.1183879653       -4.0700477562  MEMB      192             0.0000000000
     23821       192  PYPG      H16Z          -40.9037991480       34.0761031045       -2.9004550589  MEMB      192             0.0000000000
     23822       193  QMPE      N              36.9329184737      -23.2566674829      -20.4700251624  MEMB      193             0.0000000000
     23823       193  QMPE      HN1            36.2458569062      -23.5756926195      -21.1885802419  MEMB      193             0.0000000000
     23824       193  QMPE      HN2            36.8065624677      -23.8430609698      -19.6182178148  MEMB      193             0.0000000000
     23825       193  QMPE      HN3            36.7814712021      -22.2732144723      -20.1925554561  MEMB      193             0.0000000000
     23826       193  QMPE      C12            38.3436869145      -23.5145307598      -20.9029649524  MEMB      193             0.0000000000
     23827       193  QMPE      H12A           38.6401411984      -22.8453690649      -21.7314950431  MEMB      193             0.0000000000
     23828       193  QMPE      H12B           38.3481070593      -24.5694609407      -21.2482166489  MEMB      193             0.0000000000
     23829       193  QMPE      C11            39.3572293521      -23.2433705934      -19.7847003429  MEMB      193             0.0000000000
     23830       193  QMPE      H11A           39.3284483242      -22.1846656558      -19.4351324042  MEMB      193             0.0000000000
     23831       193  QMPE      H11B           40.3363936842      -23.3754865180      -20.2529226352  MEMB      193             0.0000000000
     23832       193  QMPE      P              40.4311853550      -24.9593988140      -18.0246705479  MEMB      193             0.0000000000
     23833       193  QMPE      O13            41.0959679356      -24.0324936497      -17.1106337691  MEMB      193             0.0000000000
     23834       193  QMPE      O14            41.3529541212      -25.5514772524      -19.0172730770  MEMB      193             0.0000000000
     23835       193  QMPE      O11            39.6935809177      -26.1489384422      -17.3302188109  MEMB      193             0.0000000000
     23836       193  QMPE      O12            39.2140279481      -24.1815667335      -18.7430771921  MEMB      193             0.0000000000
     23837       193  QMPE      C1             38.5241077335      -26.7075933551      -17.9422887709  MEMB      193             0.0000000000
     23838       193  QMPE      HA             38.6559369140      -27.8074910466      -18.0021611057  MEMB      193             0.0000000000
     23839       193  QMPE      HB             38.3401933067      -26.3760519442      -18.9971133007  MEMB      193             0.0000000000
     23840       193  QMPE      C2             37.2444059121      -26.3614505946      -17.1309541215  MEMB      193             0.0000000000
     23841       193  QMPE      HS             36.3980068273      -26.5894807972      -17.8130875218  MEMB      193             0.0000000000
     23842       193  QMPE      O21            37.2489351022      -24.9658621864      -16.7657921378  MEMB      193             0.0000000000
     23843       193  QMPE      C21            36.1002020393      -24.4534806642      -16.3826076972  MEMB      193             0.0000000000
     23844       193  QMPE      O22            35.0044519884      -24.9071905100      -16.6381763968  MEMB      193             0.0000000000
     23845       193  QMPE      C22            36.3700653820      -23.1542969343      -15.6160108178  MEMB      193             0.0000000000
     23846       193  QMPE      H2R            35.4565012100      -22.5268470734      -15.6408939654  MEMB      193             0.0000000000
     23847       193  QMPE      H2S            37.1977941962      -22.6023958775      -16.1086492550  MEMB      193             0.0000000000
     23848       193  QMPE      C3             37.1278145473      -27.2368724950      -15.8546672954  MEMB      193             0.0000000000
     23849       193  QMPE      HX             37.3702714466      -28.2916788670      -16.1448153026  MEMB      193             0.0000000000
     23850       193  QMPE      HY             36.0888217341      -27.2128396856      -15.4680275618  MEMB      193             0.0000000000
     23851       193  QMPE      O31            37.9710797597      -26.6929791196      -14.8262562181  MEMB      193             0.0000000000
     23852       193  QMPE      C31            38.5402658856      -27.5482455947      -14.0486129544  MEMB      193             0.0000000000
     23853       193  QMPE      O32            38.4902785094      -28.7565396395      -14.1387343372  MEMB      193             0.0000000000
     23854       193  QMPE      C32            39.2964549133      -26.7760453660      -12.9957813794  MEMB      193             0.0000000000
     23855       193  QMPE      H2X            39.6622350129      -25.8268583397      -13.4299861107  MEMB      193             0.0000000000
     23856       193  QMPE      H2Y            38.5724647183      -26.5245411816      -12.1817647098  MEMB      193             0.0000000000
     23857       193  QMPE      C23            36.7241918393      -23.5213578112      -14.1564305944  MEMB      193             0.0000000000
     23858       193  QMPE      H3R            37.4070769229      -24.4015652421      -14.1789320277  MEMB      193             0.0000000000
     23859       193  QMPE      H3S            35.7891497952      -23.8566719861      -13.6605888769  MEMB      193             0.0000000000
     23860       193  QMPE      C24            37.3632072342      -22.3981467102      -13.3190808905  MEMB      193             0.0000000000
     23861       193  QMPE      H4R            36.6726751207      -21.5312826525      -13.2522130423  MEMB      193             0.0000000000
     23862       193  QMPE      H4S            38.3097035103      -22.0604330037      -13.8026833566  MEMB      193             0.0000000000
     23863       193  QMPE      C25            37.7263786853      -22.8174647500      -11.8873388754  MEMB      193             0.0000000000
     23864       193  QMPE      H5R            38.2803457658      -21.9808920500      -11.4039728445  MEMB      193             0.0000000000
     23865       193  QMPE      H5S            38.3976238452      -23.7019151003      -11.9581421638  MEMB      193             0.0000000000
     23866       193  QMPE      C26            36.5327270765      -23.1544756090      -10.9941875938  MEMB      193             0.0000000000
     23867       193  QMPE      H6R            36.6043161525      -24.2422077584      -10.7948723584  MEMB      193             0.0000000000
     23868       193  QMPE      H6S            35.5897837868      -22.9419567845      -11.5572405929  MEMB      193             0.0000000000
     23869       193  QMPE      C27            36.5485845888      -22.3874465235       -9.6565352885  MEMB      193             0.0000000000
     23870       193  QMPE      H7R            36.1721969235      -21.3696338620       -9.8597639416  MEMB      193             0.0000000000
     23871       193  QMPE      H7S            37.5633063446      -22.3593489703       -9.2451285871  MEMB      193             0.0000000000
     23872       193  QMPE      C28            35.7065122569      -22.8592605558       -8.4971188934  MEMB      193             0.0000000000
     23873       193  QMPE      H8R            35.5945430366      -22.0952137758       -7.7177959730  MEMB      193             0.0000000000
     23874       193  QMPE      H8S            36.0501320433      -23.8054466606       -8.0492957255  MEMB      193             0.0000000000
     23875       193  QMPE      C29            34.4194445130      -23.1616443932       -9.0406234907  MEMB      193             0.0000000000
     23876       193  QMPE      H9R            34.3020958756      -23.7410338324       -9.8706173124  MEMB      193             0.0000000000
     23877       193  QMPE      C217           33.5346499559      -22.1411289451       -9.5751585014  MEMB      193             0.0000000000
     23878       193  QMPE      H17R           34.2004060969      -21.3499199117       -9.6521281119  MEMB      193             0.0000000000
     23879       193  QMPE      H17S           33.3058740872      -22.4141606040      -10.5820623817  MEMB      193             0.0000000000
     23880       193  QMPE      C210           33.2652975467      -22.9882523948       -8.3078149610  MEMB      193             0.0000000000
     23881       193  QMPE      H10R           32.6693563556      -23.7732911283       -8.7207142955  MEMB      193             0.0000000000
     23882       193  QMPE      C211           33.2603407087      -22.5717927318       -6.7710545544  MEMB      193             0.0000000000
     23883       193  QMPE      H11R           33.0517645650      -21.5669085688       -6.5056116823  MEMB      193             0.0000000000
     23884       193  QMPE      H11S           32.4028083609      -22.9724961954       -6.2207883270  MEMB      193             0.0000000000
     23885       193  QMPE      C212           34.2660529370      -23.0625650295       -5.8112530695  MEMB      193             0.0000000000
     23886       193  QMPE      H12R           35.2404503935      -22.5922754663       -5.8810348940  MEMB      193             0.0000000000
     23887       193  QMPE      H12S           34.4272895935      -24.0303286895       -6.2580270044  MEMB      193             0.0000000000
     23888       193  QMPE      C213           33.6614890120      -22.9311890191       -4.4043658779  MEMB      193             0.0000000000
     23889       193  QMPE      H13R           32.5871415419      -23.0605427716       -4.2009380327  MEMB      193             0.0000000000
     23890       193  QMPE      H13S           33.7367826089      -21.8784511572       -4.3144343542  MEMB      193             0.0000000000
     23891       193  QMPE      C214           34.4778859997      -23.4396993795       -3.2873960690  MEMB      193             0.0000000000
     23892       193  QMPE      H14R           34.1291667342      -23.1742599789       -2.2724603666  MEMB      193             0.0000000000
     23893       193  QMPE      H14S           35.5611851908      -23.1666971068       -3.4328239525  MEMB      193             0.0000000000
     23894       193  QMPE      C215           34.5634376413      -24.8777396065       -3.1711996428  MEMB      193             0.0000000000
     23895       193  QMPE      H15R           35.2455543451      -24.9481964123       -2.3388618538  MEMB      193             0.0000000000
     23896       193  QMPE      H15S           34.9922408818      -25.1786535430       -4.0217471523  MEMB      193             0.0000000000
     23897       193  QMPE      C216           33.5900415454      -25.9611878266       -3.3083014987  MEMB      193             0.0000000000
     23898       193  QMPE      H16R           33.4531799850      -27.0701970309       -3.4488416924  MEMB      193             0.0000000000
     23899       193  QMPE      H16S           33.0688501563      -25.6412570611       -4.0087522444  MEMB      193             0.0000000000
     23900       193  QMPE      H16T           33.1092445627      -25.9968692728       -2.3967483088  MEMB      193             0.0000000000
     23901       193  QMPE      C33            40.5218859336      -27.5660170386      -12.5288698995  MEMB      193             0.0000000000
     23902       193  QMPE      H3X            41.4567024514      -27.4887786862      -13.0872522962  MEMB      193             0.0000000000
     23903       193  QMPE      H3Y            40.3010003319      -28.6720383247      -12.5273932089  MEMB      193             0.0000000000
     23904       193  QMPE      C34            40.8892268723      -27.0947687688      -11.1462035602  MEMB      193             0.0000000000
     23905       193  QMPE      H4X            41.5959848138      -27.8898464180      -10.8448205673  MEMB      193             0.0000000000
     23906       193  QMPE      H4Y            39.9048609125      -27.0896484816      -10.6746373972  MEMB      193             0.0000000000
     23907       193  QMPE      C35            41.7494016777      -25.9488597101      -10.7827735733  MEMB      193             0.0000000000
     23908       193  QMPE      H5X            41.1531972121      -25.0782221170      -11.0704888908  MEMB      193             0.0000000000
     23909       193  QMPE      H5Y            42.6097142776      -26.2128683097      -11.4345489356  MEMB      193             0.0000000000
     23910       193  QMPE      C36            42.2438535076      -25.8386659487       -9.3200041043  MEMB      193             0.0000000000
     23911       193  QMPE      H6X            43.2537675343      -25.3973427540       -9.2924927925  MEMB      193             0.0000000000
     23912       193  QMPE      H6Y            42.3169346170      -26.7968110315       -8.8065498891  MEMB      193             0.0000000000
     23913       193  QMPE      C37            41.3417893217      -25.1447991754       -8.3382224807  MEMB      193             0.0000000000
     23914       193  QMPE      H7X            40.3189866355      -25.3698393158       -8.6453375867  MEMB      193             0.0000000000
     23915       193  QMPE      H7Y            41.5180967809      -25.4628714318       -7.2822841763  MEMB      193             0.0000000000
     23916       193  QMPE      C38            41.2334149734      -23.7042174922       -8.5610500879  MEMB      193             0.0000000000
     23917       193  QMPE      H8X            42.1887877561      -23.3159447144       -8.1808754832  MEMB      193             0.0000000000
     23918       193  QMPE      H8Y            41.1656743246      -23.5890282444       -9.6657443107  MEMB      193             0.0000000000
     23919       193  QMPE      C39            39.9358486002      -23.1326313092       -7.9918246433  MEMB      193             0.0000000000
     23920       193  QMPE      H9X            39.0314905000      -23.6195495354       -8.4386092112  MEMB      193             0.0000000000
     23921       193  QMPE      H9Y            39.9603542147      -22.0742951072       -8.3114142239  MEMB      193             0.0000000000
     23922       193  QMPE      C310           39.8452820589      -23.1222498754       -6.4786481521  MEMB      193             0.0000000000
     23923       193  QMPE      H10X           40.8229572582      -22.8534331513       -6.0289295798  MEMB      193             0.0000000000
     23924       193  QMPE      H10Y           39.5595103356      -24.0953372111       -6.0478831786  MEMB      193             0.0000000000
     23925       193  QMPE      C311           38.8404680756      -22.1201838899       -5.9686380725  MEMB      193             0.0000000000
     23926       193  QMPE      H11X           37.8153251565      -22.4501210157       -6.2575327535  MEMB      193             0.0000000000
     23927       193  QMPE      H11Y           39.0019358735      -21.0953810133       -6.3861920114  MEMB      193             0.0000000000
     23928       193  QMPE      C312           39.0249608134      -22.1178950208       -4.4601643489  MEMB      193             0.0000000000
     23929       193  QMPE      H12X           39.9500915245      -21.5810581041       -4.1804178514  MEMB      193             0.0000000000
     23930       193  QMPE      H12Y           38.9908945274      -23.1065226536       -3.9735205474  MEMB      193             0.0000000000
     23931       193  QMPE      C313           37.9006581813      -21.4325092845       -3.8450291637  MEMB      193             0.0000000000
     23932       193  QMPE      H13X           38.0292226334      -20.4313773085       -4.3421295296  MEMB      193             0.0000000000
     23933       193  QMPE      H13Y           36.9649607108      -21.8858629571       -4.2669100421  MEMB      193             0.0000000000
     23934       193  QMPE      C314           37.8803193881      -21.4496853112       -2.2811100605  MEMB      193             0.0000000000
     23935       193  QMPE      H14X           37.9551060300      -22.4770605367       -1.9081103482  MEMB      193             0.0000000000
     23936       193  QMPE      H14Y           36.9452444241      -21.2219644673       -1.8083852090  MEMB      193             0.0000000000
     23937       193  QMPE      C315           38.5670159421      -20.3202241728       -1.5046360557  MEMB      193             0.0000000000
     23938       193  QMPE      H15X           38.3096628436      -20.2741202568       -0.4268961642  MEMB      193             0.0000000000
     23939       193  QMPE      H15Y           39.5814909082      -20.5470226274       -1.6227469881  MEMB      193             0.0000000000
     23940       193  QMPE      H15Z           38.4196919026      -19.2937990183       -1.8977349463  MEMB      193             0.0000000000
     23941       194  PMPE      N             -36.2997170405      -28.2944117659      -18.3975420468  MEMB      194             0.0000000000
     23942       194  PMPE      HN1           -37.0903340022      -28.9692962493      -18.3650313183  MEMB      194             0.0000000000
     23943       194  PMPE      HN2           -36.6373075760      -27.3506186766      -18.1058584177  MEMB      194             0.0000000000
     23944       194  PMPE      HN3           -35.9353619156      -28.2087527938      -19.3722217184  MEMB      194             0.0000000000
     23945       194  PMPE      C12           -35.2049669378      -28.8317972852      -17.5172093878  MEMB      194             0.0000000000
     23946       194  PMPE      H12A          -35.7006038505      -29.3951631220      -16.6973169965  MEMB      194             0.0000000000
     23947       194  PMPE      H12B          -34.6201737665      -27.9849902426      -17.1194925461  MEMB      194             0.0000000000
     23948       194  PMPE      C11           -34.2581442606      -29.7577836852      -18.2753561010  MEMB      194             0.0000000000
     23949       194  PMPE      H11A          -33.4769255453      -30.0826730163      -17.5455521522  MEMB      194             0.0000000000
     23950       194  PMPE      H11B          -33.7728910431      -29.2685558221      -19.1489983019  MEMB      194             0.0000000000
     23951       194  PMPE      P             -34.3720667735      -31.9769972622      -19.6154266657  MEMB      194             0.0000000000
     23952       194  PMPE      O13           -32.9171111774      -32.0514817938      -19.4358834548  MEMB      194             0.0000000000
     23953       194  PMPE      O14           -34.9685535073      -31.8056421336      -20.9616952008  MEMB      194             0.0000000000
     23954       194  PMPE      O11           -35.0365392768      -33.1740763440      -18.8741679074  MEMB      194             0.0000000000
     23955       194  PMPE      O12           -35.0065181308      -30.8517390134      -18.7150908199  MEMB      194             0.0000000000
     23956       194  PMPE      C1            -36.3383588394      -32.8894329638      -18.3073996652  MEMB      194             0.0000000000
     23957       194  PMPE      HA            -37.1977584494      -33.5471710568      -18.5385597033  MEMB      194             0.0000000000
     23958       194  PMPE      HB            -36.9310789303      -32.1289047348      -18.8408247467  MEMB      194             0.0000000000
     23959       194  PMPE      C2            -36.4087663199      -33.3685570444      -16.9194191083  MEMB      194             0.0000000000
     23960       194  PMPE      HS            -36.9609126759      -32.4459538329      -16.6076769190  MEMB      194             0.0000000000
     23961       194  PMPE      O21           -35.1651253133      -33.6158898325      -16.3463748699  MEMB      194             0.0000000000
     23962       194  PMPE      C21           -34.7147525397      -32.5764776668      -15.7600825848  MEMB      194             0.0000000000
     23963       194  PMPE      O22           -35.2884922239      -31.5077435829      -15.5874147653  MEMB      194             0.0000000000
     23964       194  PMPE      C22           -33.3691388759      -32.9810520030      -15.2278796724  MEMB      194             0.0000000000
     23965       194  PMPE      H2R           -32.5980609581      -32.3251966468      -15.6264254273  MEMB      194             0.0000000000
     23966       194  PMPE      H2S           -33.1906033724      -34.0647186253      -15.4739097831  MEMB      194             0.0000000000
     23967       194  PMPE      C3            -37.2474920928      -34.7002169695      -16.5516648486  MEMB      194             0.0000000000
     23968       194  PMPE      HX            -36.8295954650      -35.6114476746      -16.8188523576  MEMB      194             0.0000000000
     23969       194  PMPE      HY            -38.1805702400      -34.7113804011      -17.1077668983  MEMB      194             0.0000000000
     23970       194  PMPE      O31           -37.3558923097      -35.2297603368      -15.2476455983  MEMB      194             0.0000000000
     23971       194  PMPE      C31           -37.8765513431      -34.2826894500      -14.6852086957  MEMB      194             0.0000000000
     23972       194  PMPE      O32           -37.9815750496      -33.1793295240      -15.0986682854  MEMB      194             0.0000000000
     23973       194  PMPE      C32           -38.2334427281      -34.3274922427      -13.3359022049  MEMB      194             0.0000000000
     23974       194  PMPE      H2X           -37.2487416280      -33.7830071749      -13.4369879602  MEMB      194             0.0000000000
     23975       194  PMPE      H2Y           -38.3353547519      -35.3284046489      -12.8924785349  MEMB      194             0.0000000000
     23976       194  PMPE      C23           -33.3668393726      -32.9154605748      -13.7241476438  MEMB      194             0.0000000000
     23977       194  PMPE      H3R           -34.1311019936      -33.7300112627      -13.6897184026  MEMB      194             0.0000000000
     23978       194  PMPE      H3S           -33.7295116005      -31.9507992397      -13.2985847050  MEMB      194             0.0000000000
     23979       194  PMPE      C24           -32.0821403313      -33.4819225025      -13.1191630566  MEMB      194             0.0000000000
     23980       194  PMPE      H4R           -31.2260210593      -33.0473092596      -13.6521045876  MEMB      194             0.0000000000
     23981       194  PMPE      H4S           -32.1417238475      -34.5891135939      -13.2579521290  MEMB      194             0.0000000000
     23982       194  PMPE      C25           -31.6846848426      -33.1876788792      -11.6913604339  MEMB      194             0.0000000000
     23983       194  PMPE      H5R           -31.5340493403      -32.1034041955      -11.4674771379  MEMB      194             0.0000000000
     23984       194  PMPE      H5S           -30.8472843342      -33.8229725689      -11.3429767029  MEMB      194             0.0000000000
     23985       194  PMPE      C26           -32.7261417475      -33.5776843898      -10.8072561623  MEMB      194             0.0000000000
     23986       194  PMPE      H6R           -33.1345400452      -34.6028540677      -10.9844295419  MEMB      194             0.0000000000
     23987       194  PMPE      H6S           -33.4113268926      -32.7089645139      -11.0271928127  MEMB      194             0.0000000000
     23988       194  PMPE      C27           -32.2995024495      -33.5844750025       -9.4251296972  MEMB      194             0.0000000000
     23989       194  PMPE      H7R           -31.9917765827      -32.5210998148       -9.1060290194  MEMB      194             0.0000000000
     23990       194  PMPE      H7S           -31.7906541875      -34.4381047386       -8.9627423052  MEMB      194             0.0000000000
     23991       194  PMPE      C28           -33.5257154210      -33.8610839496       -8.7529563243  MEMB      194             0.0000000000
     23992       194  PMPE      H8R           -33.9400809835      -32.8421936840       -8.9160136214  MEMB      194             0.0000000000
     23993       194  PMPE      H8S           -33.0627497215      -33.3188541502       -7.8466946546  MEMB      194             0.0000000000
     23994       194  PMPE      C29           -34.6115902158      -35.4391495781       -8.5149685342  MEMB      194             0.0000000000
     23995       194  PMPE      H9R           -33.9139796684      -36.1351557719       -8.1100364207  MEMB      194             0.0000000000
     23996       194  PMPE      C217          -36.0000566984      -36.1077498580       -9.0495953488  MEMB      194             0.0000000000
     23997       194  PMPE      H17R          -36.0440948772      -37.0138247596       -9.5366013080  MEMB      194             0.0000000000
     23998       194  PMPE      H17S          -36.7215999063      -35.6398984727       -9.6308422108  MEMB      194             0.0000000000
     23999       194  PMPE      C210          -36.2039850529      -35.7396712769       -7.6443434232  MEMB      194             0.0000000000
     24000       194  PMPE      H10R          -36.0793576147      -36.5093222083       -6.8943518681  MEMB      194             0.0000000000
     24001       194  PMPE      C211          -37.2879797787      -34.6596678363       -6.8106653909  MEMB      194             0.0000000000
     24002       194  PMPE      H11R          -38.2230335358      -34.7882464531       -7.2638178346  MEMB      194             0.0000000000
     24003       194  PMPE      H11S          -37.5727672053      -33.7773680312       -7.2894217068  MEMB      194             0.0000000000
     24004       194  PMPE      C212          -37.1926848485      -33.7364157012       -5.3681239850  MEMB      194             0.0000000000
     24005       194  PMPE      H12R          -36.3468902434      -33.1405125487       -5.4307423218  MEMB      194             0.0000000000
     24006       194  PMPE      H12S          -37.0641503513      -34.6359217931       -4.8206512413  MEMB      194             0.0000000000
     24007       194  PMPE      C213          -37.0924171882      -32.1291117206       -4.6950119536  MEMB      194             0.0000000000
     24008       194  PMPE      H13R          -37.9278465576      -32.5412187326       -4.1322492730  MEMB      194             0.0000000000
     24009       194  PMPE      H13S          -37.4113896977      -31.4139428527       -5.4633959151  MEMB      194             0.0000000000
     24010       194  PMPE      C214          -36.0884177780      -31.3656228283       -3.3995333952  MEMB      194             0.0000000000
     24011       194  PMPE      H14R          -36.9671322548      -31.0543417840       -2.8260776213  MEMB      194             0.0000000000
     24012       194  PMPE      H14S          -35.3251723393      -30.6675014779       -3.7893292951  MEMB      194             0.0000000000
     24013       194  PMPE      C215          -35.3269293877      -32.0382145270       -1.9604426760  MEMB      194             0.0000000000
     24014       194  PMPE      H15R          -35.3154593892      -31.2171253239       -1.8410874429  MEMB      194             0.0000000000
     24015       194  PMPE      H15S          -34.1804479601      -32.8467393762       -1.8562294092  MEMB      194             0.0000000000
     24016       194  PMPE      C216          -36.9281336110      -34.4520239916       -1.5205607324  MEMB      194             0.0000000000
     24017       194  PMPE      H16R          -37.5675125933      -33.8140408774       -1.1687243351  MEMB      194             0.0000000000
     24018       194  PMPE      H16S          -37.1647526366      -35.0325017358       -2.3925497098  MEMB      194             0.0000000000
     24019       194  PMPE      H16T          -36.1632080200      -35.2247197752       -1.0132400505  MEMB      194             0.0000000000
     24020       194  PMPE      C33           -38.0982847315      -33.1176823223      -12.4859901857  MEMB      194             0.0000000000
     24021       194  PMPE      H3X           -39.0265742828      -33.7257719066      -12.2439030650  MEMB      194             0.0000000000
     24022       194  PMPE      H3Y           -37.9884455617      -32.1011955528      -12.8995504137  MEMB      194             0.0000000000
     24023       194  PMPE      C34           -37.7845994526      -32.7219917367      -11.1281734965  MEMB      194             0.0000000000
     24024       194  PMPE      H4X           -37.8232116291      -33.7633794242      -10.7396794400  MEMB      194             0.0000000000
     24025       194  PMPE      H4Y           -38.5026718745      -32.4354812792      -10.4531909068  MEMB      194             0.0000000000
     24026       194  PMPE      C35           -36.6230316608      -31.6058183274      -10.9660727621  MEMB      194             0.0000000000
     24027       194  PMPE      H5X           -35.7222620371      -31.8328358096      -11.5071168375  MEMB      194             0.0000000000
     24028       194  PMPE      H5Y           -36.1519562626      -31.4708043995       -9.9760844824  MEMB      194             0.0000000000
     24029       194  PMPE      C36           -36.6188865075      -30.1948566712      -11.2211003630  MEMB      194             0.0000000000
     24030       194  PMPE      H6X           -37.1918674209      -29.8048091749      -10.3840548847  MEMB      194             0.0000000000
     24031       194  PMPE      H6Y           -37.0391974553      -30.1489171676      -12.2366094414  MEMB      194             0.0000000000
     24032       194  PMPE      C37           -35.1825140435      -29.7344496307      -11.0113368598  MEMB      194             0.0000000000
     24033       194  PMPE      H7X           -35.0816177001      -28.9684608903      -11.7809889976  MEMB      194             0.0000000000
     24034       194  PMPE      H7Y           -34.4350105725      -30.5275501840      -11.2590993604  MEMB      194             0.0000000000
     24035       194  PMPE      C38           -34.8565925898      -29.2613575988       -9.5799001752  MEMB      194             0.0000000000
     24036       194  PMPE      H8X           -33.7953507919      -28.9699667440       -9.5790683155  MEMB      194             0.0000000000
     24037       194  PMPE      H8Y           -35.0568251709      -30.0603618785       -8.8302015174  MEMB      194             0.0000000000
     24038       194  PMPE      C39           -35.5776799846      -28.0258662631       -9.0986957208  MEMB      194             0.0000000000
     24039       194  PMPE      H9X           -36.6055252578      -28.4085007658       -8.9198589225  MEMB      194             0.0000000000
     24040       194  PMPE      H9Y           -35.6207978475      -27.2786690466       -9.9262110657  MEMB      194             0.0000000000
     24041       194  PMPE      C310          -35.0235784403      -27.3475052772       -7.8106933118  MEMB      194             0.0000000000
     24042       194  PMPE      H10X          -35.5547439037      -26.3997354958       -7.5577312470  MEMB      194             0.0000000000
     24043       194  PMPE      H10Y          -33.9650733428      -27.0545135311       -7.9615977734  MEMB      194             0.0000000000
     24044       194  PMPE      C311          -35.0130279173      -28.2454017982       -6.5681504198  MEMB      194             0.0000000000
     24045       194  PMPE      H11X          -34.5995936444      -27.6754600625       -5.7057436503  MEMB      194             0.0000000000
     24046       194  PMPE      H11Y          -34.2926136216      -29.0612444662       -6.8041199353  MEMB      194             0.0000000000
     24047       194  PMPE      C312          -36.3784254833      -28.8491910129       -6.2099619275  MEMB      194             0.0000000000
     24048       194  PMPE      H12X          -36.3086037614      -29.4774051943       -5.3062735233  MEMB      194             0.0000000000
     24049       194  PMPE      H12Y          -36.6731979672      -29.5220553528       -7.0443157239  MEMB      194             0.0000000000
     24050       194  PMPE      C313          -37.5007382052      -27.8452542375       -5.9219989302  MEMB      194             0.0000000000
     24051       194  PMPE      H13X          -38.4533749731      -28.4135393866       -5.8637628591  MEMB      194             0.0000000000
     24052       194  PMPE      H13Y          -37.5948153404      -27.1881410100       -6.7889711082  MEMB      194             0.0000000000
     24053       194  PMPE      C314          -37.3068868805      -26.9743971981       -4.6651616176  MEMB      194             0.0000000000
     24054       194  PMPE      H14X          -38.1804433220      -26.2837498815       -4.5829549624  MEMB      194             0.0000000000
     24055       194  PMPE      H14Y          -36.3967433382      -26.3488221544       -4.7765303765  MEMB      194             0.0000000000
     24056       194  PMPE      C315          -37.2340208751      -27.8219100178       -3.3991251064  MEMB      194             0.0000000000
     24057       194  PMPE      H15X          -37.0287759397      -27.2204718061       -2.4817586447  MEMB      194             0.0000000000
     24058       194  PMPE      H15Y          -36.4081137272      -28.5570818306       -3.4941814582  MEMB      194             0.0000000000
     24059       194  PMPE      C316          -38.5413501036      -28.5623138472       -3.2052427746  MEMB      194             0.0000000000
     24060       194  PMPE      H16X          -39.3681398207      -27.8126024320       -3.1651871017  MEMB      194             0.0000000000
     24061       194  PMPE      H16Y          -38.4778483864      -29.1444211785       -2.2649271624  MEMB      194             0.0000000000
     24062       194  PMPE      H16Z          -38.7772353809      -29.2740452960       -4.0163200195  MEMB      194             0.0000000000
     24063       195  POPE      N              37.1021671424      -33.3095949868      -21.2209869238  MEMB      195             0.0000000000
     24064       195  POPE      HN1            37.3218264974      -33.4243977895      -22.2380635123  MEMB      195             0.0000000000
     24065       195  POPE      HN2            37.8354685066      -33.8406006741      -20.6873156330  MEMB      195             0.0000000000
     24066       195  POPE      HN3            36.2061654048      -33.7706080407      -20.9790220781  MEMB      195             0.0000000000
     24067       195  POPE      C12            37.0934532119      -31.8703444998      -20.7750049215  MEMB      195             0.0000000000
     24068       195  POPE      H12A           36.2351345773      -31.3564938295      -21.2526617675  MEMB      195             0.0000000000
     24069       195  POPE      H12B           38.0177679718      -31.3808696384      -21.1345724249  MEMB      195             0.0000000000
     24070       195  POPE      C11            37.0137149430      -31.7953235874      -19.2427342867  MEMB      195             0.0000000000
     24071       195  POPE      H11A           37.2157447719      -30.7297194957      -18.9522983112  MEMB      195             0.0000000000
     24072       195  POPE      H11B           37.8194053391      -32.3984666736      -18.7679358195  MEMB      195             0.0000000000
     24073       195  POPE      P              34.6712284307      -31.2568133365      -18.2274107323  MEMB      195             0.0000000000
     24074       195  POPE      O13            33.4128387220      -31.9375424612      -17.9013069592  MEMB      195             0.0000000000
     24075       195  POPE      O14            34.6414999367      -30.1792431524      -19.2206155549  MEMB      195             0.0000000000
     24076       195  POPE      O11            35.3724245277      -30.6961887026      -16.9204115500  MEMB      195             0.0000000000
     24077       195  POPE      O12            35.7463122902      -32.2957027482      -18.7901771582  MEMB      195             0.0000000000
     24078       195  POPE      C1             35.8482480189      -31.5999068096      -15.9374731405  MEMB      195             0.0000000000
     24079       195  POPE      HA             36.7612788688      -31.1527047295      -15.4720691775  MEMB      195             0.0000000000
     24080       195  POPE      HB             36.1540875993      -32.5745021854      -16.3765403436  MEMB      195             0.0000000000
     24081       195  POPE      C2             34.8267236636      -31.9005728919      -14.8043083373  MEMB      195             0.0000000000
     24082       195  POPE      HS             34.0723677945      -32.6522020166      -15.1210812408  MEMB      195             0.0000000000
     24083       195  POPE      O21            34.2162000981      -30.6789906296      -14.3345968385  MEMB      195             0.0000000000
     24084       195  POPE      C21            33.2080625212      -30.8441975004      -13.5013546765  MEMB      195             0.0000000000
     24085       195  POPE      O22            32.6196434759      -31.8663052323      -13.2473634076  MEMB      195             0.0000000000
     24086       195  POPE      C22            32.7785401945      -29.5020906460      -13.0321454042  MEMB      195             0.0000000000
     24087       195  POPE      H2R            32.3967415154      -29.1793076771      -14.0071978638  MEMB      195             0.0000000000
     24088       195  POPE      H2S            33.6571089138      -28.9220416065      -12.6979445110  MEMB      195             0.0000000000
     24089       195  POPE      C3             35.6513147309      -32.4940296600      -13.6926179838  MEMB      195             0.0000000000
     24090       195  POPE      HX             36.3251570614      -33.2934927613      -14.0892173370  MEMB      195             0.0000000000
     24091       195  POPE      HY             34.9775602793      -33.0361290975      -12.9772556067  MEMB      195             0.0000000000
     24092       195  POPE      O31            36.4215178547      -31.3202528079      -13.2477684159  MEMB      195             0.0000000000
     24093       195  POPE      C31            36.4470761748      -31.1485951696      -11.9300091122  MEMB      195             0.0000000000
     24094       195  POPE      O32            35.6950528658      -31.7991833363      -11.2110037759  MEMB      195             0.0000000000
     24095       195  POPE      C32            37.8131495380      -30.2939487679      -11.5043768041  MEMB      195             0.0000000000
     24096       195  POPE      H2X            37.6458323517      -29.2714491099      -11.3079514550  MEMB      195             0.0000000000
     24097       195  POPE      H2Y            38.3250433162      -30.1555286787      -12.4624588479  MEMB      195             0.0000000000
     24098       195  POPE      C23            31.5579498791      -29.2928504644      -12.1294050594  MEMB      195             0.0000000000
     24099       195  POPE      H3R            30.6592030113      -29.7770509219      -12.5587129951  MEMB      195             0.0000000000
     24100       195  POPE      H3S            31.3263133898      -28.1969683709      -12.0413623608  MEMB      195             0.0000000000
     24101       195  POPE      C24            31.8319706524      -29.8361604401      -10.7562020618  MEMB      195             0.0000000000
     24102       195  POPE      H4R            32.2893617174      -30.8403918493      -10.8202629672  MEMB      195             0.0000000000
     24103       195  POPE      H4S            30.8479991801      -29.8758193257      -10.2388513029  MEMB      195             0.0000000000
     24104       195  POPE      C25            32.7266568988      -28.9110587588       -9.9950875478  MEMB      195             0.0000000000
     24105       195  POPE      H5R            32.0589522898      -28.0162456808       -9.9102481282  MEMB      195             0.0000000000
     24106       195  POPE      H5S            33.6796534459      -28.6611834729      -10.5091286137  MEMB      195             0.0000000000
     24107       195  POPE      C26            33.0681159569      -29.3645580854       -8.6262485843  MEMB      195             0.0000000000
     24108       195  POPE      H6R            33.4688743251      -28.6273642686       -7.9833830682  MEMB      195             0.0000000000
     24109       195  POPE      H6S            33.9046837355      -30.0709917696       -8.5351645344  MEMB      195             0.0000000000
     24110       195  POPE      C27            31.8715339010      -29.7232757728       -7.8468749253  MEMB      195             0.0000000000
     24111       195  POPE      H7R            31.4666988303      -30.6481914061       -8.2784001294  MEMB      195             0.0000000000
     24112       195  POPE      H7S            31.0601940122      -28.9423044914       -7.8619339945  MEMB      195             0.0000000000
     24113       195  POPE      C28            32.5862478423      -29.9701801164       -6.5829774999  MEMB      195             0.0000000000
     24114       195  POPE      H8R            32.8183783855      -29.1270073439       -5.9253393277  MEMB      195             0.0000000000
     24115       195  POPE      H8S            33.3538256971      -30.7850053868       -6.6146064760  MEMB      195             0.0000000000
     24116       195  POPE      C29            31.5569398725      -30.2070112786       -5.7561562153  MEMB      195             0.0000000000
     24117       195  POPE      H91            30.5197226774      -29.8889558810       -5.9963835472  MEMB      195             0.0000000000
     24118       195  POPE      C210           31.8822812677      -31.0174405317       -4.8267981079  MEMB      195             0.0000000000
     24119       195  POPE      H101           31.4978013956      -30.3340148653       -4.0896896799  MEMB      195             0.0000000000
     24120       195  POPE      C211           32.8867797721      -31.9166676669       -4.2742558830  MEMB      195             0.0000000000
     24121       195  POPE      H11R           33.4794891200      -32.4212963486       -5.0497725953  MEMB      195             0.0000000000
     24122       195  POPE      H11S           32.5749145517      -32.9701154037       -4.0858978261  MEMB      195             0.0000000000
     24123       195  POPE      C212           33.1112515729      -31.2792966102       -2.8755121864  MEMB      195             0.0000000000
     24124       195  POPE      H12R           32.4889473208      -31.0848833632       -2.0022328979  MEMB      195             0.0000000000
     24125       195  POPE      H12S           33.1135189752      -30.1883304592       -2.8967882465  MEMB      195             0.0000000000
     24126       195  POPE      C213           34.0180330743      -32.1555120523       -2.1210129467  MEMB      195             0.0000000000
     24127       195  POPE      H13R           33.7605505584      -33.2143198930       -2.3431794790  MEMB      195             0.0000000000
     24128       195  POPE      H13S           34.0479793175      -31.9472043831       -1.0022045954  MEMB      195             0.0000000000
     24129       195  POPE      C214           35.2239303456      -32.0491534016       -2.7408387776  MEMB      195             0.0000000000
     24130       195  POPE      H14R           35.1140223986      -31.9047476452       -3.8310017996  MEMB      195             0.0000000000
     24131       195  POPE      H14S           35.6689743756      -33.0476285379       -2.5755123724  MEMB      195             0.0000000000
     24132       195  POPE      C215           35.7608578922      -30.8407135052       -2.0579974260  MEMB      195             0.0000000000
     24133       195  POPE      H15R           36.0228536642      -31.1303185516       -1.0187949781  MEMB      195             0.0000000000
     24134       195  POPE      H15S           35.0075922411      -30.0170597074       -2.0025263265  MEMB      195             0.0000000000
     24135       195  POPE      C216           36.9063544542      -30.3519947448       -2.8557387096  MEMB      195             0.0000000000
     24136       195  POPE      H16R           37.3165320250      -29.5131650785       -2.3291637443  MEMB      195             0.0000000000
     24137       195  POPE      H16S           36.5880184062      -30.1057218456       -3.8834743301  MEMB      195             0.0000000000
     24138       195  POPE      C217           37.9576655841      -31.3666326073       -2.9202758677  MEMB      195             0.0000000000
     24139       195  POPE      H17R           38.7062534230      -31.2021215364       -3.7189572516  MEMB      195             0.0000000000
     24140       195  POPE      H17S           37.3381704932      -32.1707810362       -3.3363308631  MEMB      195             0.0000000000
     24141       195  POPE      C218           38.5434112939      -31.7466735486       -1.5392380709  MEMB      195             0.0000000000
     24142       195  POPE      H18R           39.5832872292      -32.1312567570       -1.6657794461  MEMB      195             0.0000000000
     24143       195  POPE      H18S           37.9419293120      -32.5737369994       -1.1047203888  MEMB      195             0.0000000000
     24144       195  POPE      H18T           38.5307621911      -31.0470466899       -0.7445913892  MEMB      195             0.0000000000
     24145       195  POPE      C33            38.8280431476      -30.6598857750      -10.2733463299  MEMB      195             0.0000000000
     24146       195  POPE      H3X            39.3897887966      -31.4866759263      -10.5363425020  MEMB      195             0.0000000000
     24147       195  POPE      H3Y            38.3681712203      -30.8611748973       -9.3155092690  MEMB      195             0.0000000000
     24148       195  POPE      C34            40.2997547958      -30.5117191728       -9.9650035231  MEMB      195             0.0000000000
     24149       195  POPE      H4X            40.9419190181      -30.6203153738      -10.8699395751  MEMB      195             0.0000000000
     24150       195  POPE      H4Y            40.7483612587      -31.0649154766       -9.0777356091  MEMB      195             0.0000000000
     24151       195  POPE      C35            40.2258845071      -29.2244666285       -9.6794007497  MEMB      195             0.0000000000
     24152       195  POPE      H5X            39.8145735179      -28.9526003043      -10.6888647747  MEMB      195             0.0000000000
     24153       195  POPE      H5Y            41.2686494994      -28.9937277696       -9.4295977755  MEMB      195             0.0000000000
     24154       195  POPE      C36            39.3240060468      -28.8432335243       -8.6025215106  MEMB      195             0.0000000000
     24155       195  POPE      H6X            39.7421666460      -29.4023276740       -7.7337091578  MEMB      195             0.0000000000
     24156       195  POPE      H6Y            38.2564596056      -28.9400931857       -8.8788926045  MEMB      195             0.0000000000
     24157       195  POPE      C37            39.5111608893      -27.4292158492       -8.4181287127  MEMB      195             0.0000000000
     24158       195  POPE      H7X            38.9992071062      -26.7678513001       -9.1603989267  MEMB      195             0.0000000000
     24159       195  POPE      H7Y            40.6034346993      -27.3882052369       -8.4775841082  MEMB      195             0.0000000000
     24160       195  POPE      C38            39.1024403867      -26.9088632290       -7.1317043784  MEMB      195             0.0000000000
     24161       195  POPE      H8X            39.4545918224      -25.8655072947       -6.9826703939  MEMB      195             0.0000000000
     24162       195  POPE      H8Y            39.5117871257      -27.5189714881       -6.3192622895  MEMB      195             0.0000000000
     24163       195  POPE      C39            37.6413865855      -26.8013125844       -7.1611201395  MEMB      195             0.0000000000
     24164       195  POPE      H9X            37.1777582669      -27.8130087838       -7.1588107863  MEMB      195             0.0000000000
     24165       195  POPE      H9Y            37.2967756354      -26.2711544033       -8.0894777455  MEMB      195             0.0000000000
     24166       195  POPE      C310           37.5257511020      -25.9920020028       -5.9148087508  MEMB      195             0.0000000000
     24167       195  POPE      H10X           37.9289578694      -24.9650146777       -5.9856630577  MEMB      195             0.0000000000
     24168       195  POPE      H10Y           37.7781693246      -26.5345625209       -4.9827473740  MEMB      195             0.0000000000
     24169       195  POPE      C311           36.2167391329      -25.6718986051       -5.7404225848  MEMB      195             0.0000000000
     24170       195  POPE      H11X           36.0083111140      -25.0586406125       -6.6259381500  MEMB      195             0.0000000000
     24171       195  POPE      H11Y           36.0776912738      -24.7145373611       -5.2280603572  MEMB      195             0.0000000000
     24172       195  POPE      C312           35.5058985549      -27.0186127910       -5.3636884629  MEMB      195             0.0000000000
     24173       195  POPE      H12X           35.3411183306      -27.8400270111       -6.0957160425  MEMB      195             0.0000000000
     24174       195  POPE      H12Y           34.6314795957      -26.4370091150       -5.3419322216  MEMB      195             0.0000000000
     24175       195  POPE      C313           35.4382779085      -27.8872379364       -4.0744510344  MEMB      195             0.0000000000
     24176       195  POPE      H13X           36.3352617458      -28.4031214652       -4.3511989291  MEMB      195             0.0000000000
     24177       195  POPE      H13Y           34.4922854736      -28.5067512874       -4.1142282454  MEMB      195             0.0000000000
     24178       195  POPE      C314           35.8883146204      -27.3775945446       -2.6688980088  MEMB      195             0.0000000000
     24179       195  POPE      H14X           35.2227163508      -26.7769873681       -2.3833117199  MEMB      195             0.0000000000
     24180       195  POPE      H14Y           36.3875983787      -26.4603592936       -3.0695372493  MEMB      195             0.0000000000
     24181       195  POPE      C315           34.9890805733      -27.3039808995       -1.2404925880  MEMB      195             0.0000000000
     24182       195  POPE      H15X           35.2370808188      -26.3267667293       -0.6846051851  MEMB      195             0.0000000000
     24183       195  POPE      H15Y           35.4768165546      -28.2026933148       -0.9377777208  MEMB      195             0.0000000000
     24184       195  POPE      C316           33.4547302393      -27.4856706919       -0.8172837591  MEMB      195             0.0000000000
     24185       195  POPE      H16X           33.3565066861      -27.7946820783        0.2278665028  MEMB      195             0.0000000000
     24186       195  POPE      H16Y           32.7690108255      -27.9872841838       -1.5477770977  MEMB      195             0.0000000000
     24187       195  POPE      H16Z           32.9579657873      -26.4936230292       -0.6430361443  MEMB      195             0.0000000000
     24188       196  PVCL2     C3            -27.2612783510      -37.8640965702      -20.4143368485  MEMB      196             0.0000000000
     24189       196  PVCL2     HG31          -27.7646737670      -38.0755593177      -19.4420442081  MEMB      196             0.0000000000
     24190       196  PVCL2     HG32          -27.6974487686      -36.9403583079      -20.8534705264  MEMB      196             0.0000000000
     24191       196  PVCL2     P3            -28.5865104382      -39.9355302648      -21.5597567639  MEMB      196             0.0000000000
     24192       196  PVCL2     OP33          -28.7668369570      -41.1952700876      -20.8299603610  MEMB      196             0.0000000000
     24193       196  PVCL2     OP34          -28.9162353622      -39.9487676956      -22.9961313897  MEMB      196             0.0000000000
     24194       196  PVCL2     OP31          -27.3132655550      -39.0083579031      -21.2998819075  MEMB      196             0.0000000000
     24195       196  PVCL2     OP32          -29.5974897869      -39.2877321905      -20.6631207128  MEMB      196             0.0000000000
     24196       196  PVCL2     C31           -30.6377309281      -38.5641466419      -21.1117421529  MEMB      196             0.0000000000
     24197       196  PVCL2     H31J          -30.1540997651      -37.6968426917      -21.5904716666  MEMB      196             0.0000000000
     24198       196  PVCL2     H31K          -31.2062652045      -39.1369411355      -21.8463143480  MEMB      196             0.0000000000
     24199       196  PVCL2     C2            -25.8179713348      -37.5822882335      -19.9768703659  MEMB      196             0.0000000000
     24200       196  PVCL2     HG22          -25.1598855638      -37.3931144773      -20.8105436751  MEMB      196             0.0000000000
     24201       196  PVCL2     OG12          -25.7525289307      -36.3865522259      -19.1833208798  MEMB      196             0.0000000000
     24202       196  PVCL2     HO12          -25.8989748092      -35.6308425336      -19.7599117171  MEMB      196             0.0000000000
     24203       196  PVCL2     C1            -25.2656514855      -38.8906949123      -19.3655258917  MEMB      196             0.0000000000
     24204       196  PVCL2     HG11          -24.1647908514      -38.9327163791      -19.2930179579  MEMB      196             0.0000000000
     24205       196  PVCL2     HG12          -25.3699860167      -39.6782739107      -20.1165754990  MEMB      196             0.0000000000
     24206       196  PVCL2     P1            -25.8155649125      -40.5850028996      -17.4690617030  MEMB      196             0.0000000000
     24207       196  PVCL2     OP13          -27.1076917535      -40.9972453862      -16.8994170870  MEMB      196             0.0000000000
     24208       196  PVCL2     OP14          -25.0605007162      -41.5457779719      -18.2910927790  MEMB      196             0.0000000000
     24209       196  PVCL2     OP11          -25.9579540045      -39.1876149805      -18.1648734372  MEMB      196             0.0000000000
     24210       196  PVCL2     OP12          -24.7651591665      -40.2452585698      -16.3789916787  MEMB      196             0.0000000000
     24211       196  PVCL2     C11           -23.4021416509      -40.4338446333      -16.8038983149  MEMB      196             0.0000000000
     24212       196  PVCL2     H11J          -23.1746291427      -39.6713730834      -17.5488524620  MEMB      196             0.0000000000
     24213       196  PVCL2     H11K          -23.1546370436      -41.3993181054      -17.3322363165  MEMB      196             0.0000000000
     24214       196  PVCL2     C12           -22.5468949459      -40.4671500447      -15.5457419114  MEMB      196             0.0000000000
     24215       196  PVCL2     H12J          -21.7330191494      -41.1962914383      -15.7696782518  MEMB      196             0.0000000000
     24216       196  PVCL2     O12           -23.2718780720      -40.8203490546      -14.3997371323  MEMB      196             0.0000000000
     24217       196  PVCL2     CA1           -23.7730741934      -41.9828852481      -14.3680440012  MEMB      196             0.0000000000
     24218       196  PVCL2     OA1           -23.3396398825      -42.9878764727      -14.9095842625  MEMB      196             0.0000000000
     24219       196  PVCL2     CA2           -24.9474058017      -41.8299667266      -13.4200192127  MEMB      196             0.0000000000
     24220       196  PVCL2     H2A           -25.7402978704      -41.2692056118      -13.9780050920  MEMB      196             0.0000000000
     24221       196  PVCL2     H2B           -24.6155727865      -41.2054289712      -12.5646063583  MEMB      196             0.0000000000
     24222       196  PVCL2     C13           -21.9780191515      -39.1634488923      -15.1318055922  MEMB      196             0.0000000000
     24223       196  PVCL2     H13J          -22.7960683165      -38.5131295379      -14.9055045586  MEMB      196             0.0000000000
     24224       196  PVCL2     H13K          -21.5689123150      -38.6244024443      -15.8919958102  MEMB      196             0.0000000000
     24225       196  PVCL2     O13           -21.0977385068      -39.2217233698      -14.0460583307  MEMB      196             0.0000000000
     24226       196  PVCL2     CB1           -19.9924895272      -39.9215200703      -14.1852852047  MEMB      196             0.0000000000
     24227       196  PVCL2     OB1           -19.6008419737      -40.5421875001      -15.1505005991  MEMB      196             0.0000000000
     24228       196  PVCL2     CB2           -19.3198608099      -39.6932390754      -12.8861610360  MEMB      196             0.0000000000
     24229       196  PVCL2     H2D           -19.4070605743      -40.6069945803      -12.3029762395  MEMB      196             0.0000000000
     24230       196  PVCL2     H2E           -19.7387503450      -38.7433515747      -12.4162428568  MEMB      196             0.0000000000
     24231       196  PVCL2     C32           -31.4844060064      -38.2139299182      -19.8882226308  MEMB      196             0.0000000000
     24232       196  PVCL2     H32J          -32.1286313693      -37.4125549637      -20.2984778176  MEMB      196             0.0000000000
     24233       196  PVCL2     O32           -30.5891917008      -37.7401819267      -18.8673277005  MEMB      196             0.0000000000
     24234       196  PVCL2     CC1           -31.0756746502      -36.7731824699      -18.1457504355  MEMB      196             0.0000000000
     24235       196  PVCL2     OC1           -32.1802416385      -36.2768877351      -18.2309655729  MEMB      196             0.0000000000
     24236       196  PVCL2     CC2           -29.9656387430      -36.1474529085      -17.3565641582  MEMB      196             0.0000000000
     24237       196  PVCL2     H2R           -30.3560920074      -35.1017713959      -17.3320677418  MEMB      196             0.0000000000
     24238       196  PVCL2     H2S           -28.9972169041      -36.2013710388      -17.9007181488  MEMB      196             0.0000000000
     24239       196  PVCL2     C33           -32.3736999897      -39.3922033281      -19.3259529349  MEMB      196             0.0000000000
     24240       196  PVCL2     H33J          -33.3240693371      -38.9594678643      -18.9286350096  MEMB      196             0.0000000000
     24241       196  PVCL2     H33K          -32.6920500018      -39.9955932842      -20.2054723231  MEMB      196             0.0000000000
     24242       196  PVCL2     O33           -31.6916088477      -40.2878842059      -18.3947189226  MEMB      196             0.0000000000
     24243       196  PVCL2     CD1           -31.9155473321      -40.1614279335      -17.0741492227  MEMB      196             0.0000000000
     24244       196  PVCL2     OD1           -32.6983512284      -39.3883692687      -16.5639992015  MEMB      196             0.0000000000
     24245       196  PVCL2     CD2           -31.0675010858      -41.1605788614      -16.2594730958  MEMB      196             0.0000000000
     24246       196  PVCL2     H2X           -30.2858271372      -41.6324980929      -16.8813929488  MEMB      196             0.0000000000
     24247       196  PVCL2     H2Y           -31.7535300640      -41.9686768557      -15.9446140921  MEMB      196             0.0000000000
     24248       196  PVCL2     CA3           -25.4923848620      -43.1898630354      -12.9865905465  MEMB      196             0.0000000000
     24249       196  PVCL2     H3A           -25.7346971337      -43.7573936002      -13.9183070341  MEMB      196             0.0000000000
     24250       196  PVCL2     H3B           -26.4525163290      -42.9979965298      -12.4600387584  MEMB      196             0.0000000000
     24251       196  PVCL2     CA4           -24.5974378549      -44.0206379368      -12.0355275450  MEMB      196             0.0000000000
     24252       196  PVCL2     H4A           -23.6149057686      -44.2801528836      -12.4895798076  MEMB      196             0.0000000000
     24253       196  PVCL2     H4B           -25.1566612000      -44.9631907613      -11.8379242692  MEMB      196             0.0000000000
     24254       196  PVCL2     CA5           -24.3019229632      -43.3844912546      -10.6724829268  MEMB      196             0.0000000000
     24255       196  PVCL2     H5A           -25.1896148306      -42.7768532556      -10.3960534244  MEMB      196             0.0000000000
     24256       196  PVCL2     H5B           -23.4380974222      -42.6910109344      -10.7734927803  MEMB      196             0.0000000000
     24257       196  PVCL2     CA6           -23.9784146351      -44.4040483719       -9.5583456230  MEMB      196             0.0000000000
     24258       196  PVCL2     H6A           -23.2119599498      -45.1458486351       -9.8825368303  MEMB      196             0.0000000000
     24259       196  PVCL2     H6B           -24.8939988367      -44.9642812178       -9.2594991522  MEMB      196             0.0000000000
     24260       196  PVCL2     CA7           -23.4112967853      -43.7220683017       -8.3126833224  MEMB      196             0.0000000000
     24261       196  PVCL2     H7A           -22.6203722653      -43.0040382911       -8.6183512689  MEMB      196             0.0000000000
     24262       196  PVCL2     H7B           -22.9548150144      -44.5006731204       -7.6577942078  MEMB      196             0.0000000000
     24263       196  PVCL2     CA8           -24.5134485271      -43.0123340981       -7.5271472565  MEMB      196             0.0000000000
     24264       196  PVCL2     H8A           -25.2252574399      -43.8233752378       -7.2425112982  MEMB      196             0.0000000000
     24265       196  PVCL2     H8B           -25.0514791178      -42.3125665437       -8.2025834395  MEMB      196             0.0000000000
     24266       196  PVCL2     CA9           -23.9751466619      -42.2779895122       -6.2849520611  MEMB      196             0.0000000000
     24267       196  PVCL2     H9A           -23.1447786749      -42.8829368528       -5.8596465265  MEMB      196             0.0000000000
     24268       196  PVCL2     H9B           -24.7580561877      -42.2072755607       -5.4940481831  MEMB      196             0.0000000000
     24269       196  PVCL2     CA10          -23.4726790252      -40.8450386342       -6.5608423576  MEMB      196             0.0000000000
     24270       196  PVCL2     H10A          -22.7226880845      -40.8467553820       -7.3828182613  MEMB      196             0.0000000000
     24271       196  PVCL2     H10B          -22.9620282020      -40.4705088886       -5.6470524552  MEMB      196             0.0000000000
     24272       196  PVCL2     CA11          -24.6302842538      -39.9601577358       -6.9365053672  MEMB      196             0.0000000000
     24273       196  PVCL2     H11A          -24.8657716853      -39.9914367341       -8.0094793117  MEMB      196             0.0000000000
     24274       196  PVCL2     CA12          -25.3533705606      -39.1526300167       -6.1367217575  MEMB      196             0.0000000000
     24275       196  PVCL2     H12A          -26.1719242112      -38.5737764154       -6.5730761663  MEMB      196             0.0000000000
     24276       196  PVCL2     CA13          -25.1998283688      -38.9125224148       -4.6674055631  MEMB      196             0.0000000000
     24277       196  PVCL2     H13A          -24.3054516951      -39.4701235535       -4.3222541621  MEMB      196             0.0000000000
     24278       196  PVCL2     H13B          -26.0187580825      -39.3109704755       -4.0338680607  MEMB      196             0.0000000000
     24279       196  PVCL2     CA14          -25.1320935274      -37.3717560781       -4.4729299815  MEMB      196             0.0000000000
     24280       196  PVCL2     H14A          -25.9562141564      -36.7911011060       -4.8705867082  MEMB      196             0.0000000000
     24281       196  PVCL2     H14B          -24.1623175774      -37.0325629115       -4.9365892509  MEMB      196             0.0000000000
     24282       196  PVCL2     CA15          -25.2669204457      -36.9064406835       -3.0512333020  MEMB      196             0.0000000000
     24283       196  PVCL2     H15A          -26.0636203813      -37.1605962070       -2.3461999885  MEMB      196             0.0000000000
     24284       196  PVCL2     H15B          -25.1262041593      -35.7982966811       -2.8745768882  MEMB      196             0.0000000000
     24285       196  PVCL2     CA16          -24.3473311053      -37.8059510395       -2.4739142348  MEMB      196             0.0000000000
     24286       196  PVCL2     H16A          -24.5212308155      -38.8471846359       -2.1009748423  MEMB      196             0.0000000000
     24287       196  PVCL2     H16B          -24.1730942328      -37.0078768539       -1.6979557152  MEMB      196             0.0000000000
     24288       196  PVCL2     CA17          -23.1185578933      -37.6953622637       -3.0178454991  MEMB      196             0.0000000000
     24289       196  PVCL2     H17A          -22.8567302627      -38.3403529529       -3.8931756595  MEMB      196             0.0000000000
     24290       196  PVCL2     H17B          -22.4624583677      -38.4680761364       -2.4646942538  MEMB      196             0.0000000000
     24291       196  PVCL2     CA18          -22.9594805386      -36.0108428089       -3.0374109780  MEMB      196             0.0000000000
     24292       196  PVCL2     H18A          -22.4239762140      -35.2507349843       -2.4158587579  MEMB      196             0.0000000000
     24293       196  PVCL2     H18B          -22.9281181700      -35.6155522765       -4.0192074545  MEMB      196             0.0000000000
     24294       196  PVCL2     H18C          -22.0122313422      -35.8143529700       -3.0929273141  MEMB      196             0.0000000000
     24295       196  PVCL2     CB3           -17.8836011772      -39.4604714306      -12.7578054322  MEMB      196             0.0000000000
     24296       196  PVCL2     H3D           -17.5975260914      -38.5744680862      -13.3385347239  MEMB      196             0.0000000000
     24297       196  PVCL2     H3E           -17.1044649777      -40.2407387318      -12.9295121612  MEMB      196             0.0000000000
     24298       196  PVCL2     CB4           -17.9749813217      -39.0080210363      -11.3851275286  MEMB      196             0.0000000000
     24299       196  PVCL2     H4D           -18.2138969420      -37.9818036230      -11.1376562935  MEMB      196             0.0000000000
     24300       196  PVCL2     H4E           -17.0490927011      -38.7675355424      -11.3725273386  MEMB      196             0.0000000000
     24301       196  PVCL2     CB5           -17.6724638903      -39.9558320976      -10.3941040660  MEMB      196             0.0000000000
     24302       196  PVCL2     H5D           -16.8217228078      -40.6489389267      -10.7328444660  MEMB      196             0.0000000000
     24303       196  PVCL2     H5E           -18.4861812298      -40.6493661117      -10.5630500508  MEMB      196             0.0000000000
     24304       196  PVCL2     CB6           -17.6858880319      -39.0968751394       -9.0622607818  MEMB      196             0.0000000000
     24305       196  PVCL2     H6D           -16.9584115286      -38.5223000366       -8.5287563663  MEMB      196             0.0000000000
     24306       196  PVCL2     H6E           -17.3454934433      -39.5404796974       -8.2167613539  MEMB      196             0.0000000000
     24307       196  PVCL2     CB7           -18.5578746143      -38.2445223293       -8.3463096184  MEMB      196             0.0000000000
     24308       196  PVCL2     H7D           -19.4040024763      -38.7721511190       -8.7641738255  MEMB      196             0.0000000000
     24309       196  PVCL2     H7E           -18.2217250555      -37.2390188493       -8.7416772686  MEMB      196             0.0000000000
     24310       196  PVCL2     CB8           -18.2306976218      -38.3947320330       -6.7869074225  MEMB      196             0.0000000000
     24311       196  PVCL2     H8D           -18.8199675132      -37.5735789613       -6.4952154347  MEMB      196             0.0000000000
     24312       196  PVCL2     H8E           -17.1784314628      -38.1900816388       -6.4335251189  MEMB      196             0.0000000000
     24313       196  PVCL2     CB9           -18.9135202088      -39.5349567722       -6.0135138168  MEMB      196             0.0000000000
     24314       196  PVCL2     H9D           -18.4448474819      -40.5045358022       -6.0321333673  MEMB      196             0.0000000000
     24315       196  PVCL2     H9E           -19.8521894992      -39.8423198954       -6.4824569933  MEMB      196             0.0000000000
     24316       196  PVCL2     CB10          -18.7651693094      -39.6355988009       -4.5398466829  MEMB      196             0.0000000000
     24317       196  PVCL2     H10D          -19.0492554153      -38.7448111083       -4.2102087232  MEMB      196             0.0000000000
     24318       196  PVCL2     H10E          -17.7288815795      -39.5002831251       -4.2020086599  MEMB      196             0.0000000000
     24319       196  PVCL2     CB11          -19.5860713758      -40.8259416024       -4.0258081715  MEMB      196             0.0000000000
     24320       196  PVCL2     H11D          -19.0115227248      -41.7049412391       -4.2826389522  MEMB      196             0.0000000000
     24321       196  PVCL2     H11E          -20.5064400025      -41.0248567536       -4.5872835638  MEMB      196             0.0000000000
     24322       196  PVCL2     CB12          -19.7733445808      -40.9158713704       -2.5248157545  MEMB      196             0.0000000000
     24323       196  PVCL2     H12D          -20.5817216882      -40.2678612247       -2.1495205000  MEMB      196             0.0000000000
     24324       196  PVCL2     H12E          -18.9917653505      -40.2621030530       -2.1127219545  MEMB      196             0.0000000000
     24325       196  PVCL2     CB13          -19.8844476300      -42.4300168347       -2.0026279065  MEMB      196             0.0000000000
     24326       196  PVCL2     H13D          -20.6642206460      -42.9234802606       -2.5843359949  MEMB      196             0.0000000000
     24327       196  PVCL2     H13E          -20.3472540943      -42.1357764874       -1.0653544239  MEMB      196             0.0000000000
     24328       196  PVCL2     CB14          -18.7338421639      -43.5410500449       -1.6613809553  MEMB      196             0.0000000000
     24329       196  PVCL2     H14D          -17.9526361578      -43.3725984392       -0.9051497675  MEMB      196             0.0000000000
     24330       196  PVCL2     H14E          -18.1003274546      -43.8504491361       -2.5317189749  MEMB      196             0.0000000000
     24331       196  PVCL2     CB15          -19.1618685497      -44.8207394321       -1.1007574508  MEMB      196             0.0000000000
     24332       196  PVCL2     H15D          -18.3607852145      -45.5116561626       -1.4300886073  MEMB      196             0.0000000000
     24333       196  PVCL2     H15E          -20.2416673140      -44.8675579423       -1.3709319793  MEMB      196             0.0000000000
     24334       196  PVCL2     CB16          -18.9871378478      -45.2619145172        0.2466013554  MEMB      196             0.0000000000
     24335       196  PVCL2     H16D          -19.3832431140      -44.4713191775        0.6439806143  MEMB      196             0.0000000000
     24336       196  PVCL2     H16E          -18.0899864560      -44.9788757462        0.8046007148  MEMB      196             0.0000000000
     24337       196  PVCL2     H16F          -19.7004769257      -46.0491901658        0.5388887497  MEMB      196             0.0000000000
     24338       196  PVCL2     CC3           -29.9119504229      -36.5863622652      -15.8884081832  MEMB      196             0.0000000000
     24339       196  PVCL2     H3R           -30.1645898762      -37.6692951271      -15.8273556717  MEMB      196             0.0000000000
     24340       196  PVCL2     H3S           -30.6698265641      -35.9570487913      -15.3766262221  MEMB      196             0.0000000000
     24341       196  PVCL2     CC4           -28.6117568494      -36.3688222991      -15.1206813698  MEMB      196             0.0000000000
     24342       196  PVCL2     H4R           -28.7500664366      -36.7168357547      -14.0734354387  MEMB      196             0.0000000000
     24343       196  PVCL2     H4S           -28.3773927183      -35.2897506788      -15.0692765814  MEMB      196             0.0000000000
     24344       196  PVCL2     CC5           -27.5008403835      -37.1771734691      -15.7582419504  MEMB      196             0.0000000000
     24345       196  PVCL2     H5R           -27.2755555691      -36.7467551543      -16.7664468823  MEMB      196             0.0000000000
     24346       196  PVCL2     H5S           -27.7844340746      -38.2467916481      -15.8466633215  MEMB      196             0.0000000000
     24347       196  PVCL2     CC6           -26.2016233711      -37.2427361516      -15.0077403004  MEMB      196             0.0000000000
     24348       196  PVCL2     H6R           -25.7949505038      -36.2300528745      -15.1579679742  MEMB      196             0.0000000000
     24349       196  PVCL2     H6S           -25.5560699300      -37.9624385145      -15.5559914303  MEMB      196             0.0000000000
     24350       196  PVCL2     CC7           -26.2036178352      -37.6455019384      -13.5198958120  MEMB      196             0.0000000000
     24351       196  PVCL2     H7R           -26.9358098845      -38.4297596500      -13.3266771216  MEMB      196             0.0000000000
     24352       196  PVCL2     H7S           -26.6478987748      -36.7220971610      -13.0643846327  MEMB      196             0.0000000000
     24353       196  PVCL2     CC8           -24.8722071415      -38.2607370187      -12.8936175027  MEMB      196             0.0000000000
     24354       196  PVCL2     H8R           -23.9751866738      -37.7163722565      -13.1207052278  MEMB      196             0.0000000000
     24355       196  PVCL2     H8S           -24.3971308919      -39.0779573153      -13.4225769910  MEMB      196             0.0000000000
     24356       196  PVCL2     CC9           -24.8122831911      -38.3367120837      -11.3331563775  MEMB      196             0.0000000000
     24357       196  PVCL2     H9R           -25.6114880092      -39.0353188638      -11.0961131793  MEMB      196             0.0000000000
     24358       196  PVCL2     H9S           -25.2049571137      -37.4617244573      -10.7892424009  MEMB      196             0.0000000000
     24359       196  PVCL2     CC10          -23.3927730678      -38.6280892246      -10.6975441588  MEMB      196             0.0000000000
     24360       196  PVCL2     H10R          -23.1664876593      -39.5924742425      -11.1826899366  MEMB      196             0.0000000000
     24361       196  PVCL2     H10S          -23.6235875694      -38.7901890441       -9.6271257727  MEMB      196             0.0000000000
     24362       196  PVCL2     CC11          -22.1145262501      -37.7713964884      -10.7126574349  MEMB      196             0.0000000000
     24363       196  PVCL2     H11R          -21.7086740202      -37.5376099096      -11.7187611168  MEMB      196             0.0000000000
     24364       196  PVCL2     CC12          -21.4802914665      -37.2035681725       -9.6641493301  MEMB      196             0.0000000000
     24365       196  PVCL2     H12R          -20.5934850677      -36.5630855536       -9.8599026287  MEMB      196             0.0000000000
     24366       196  PVCL2     CC13          -21.8930956328      -37.2985288034       -8.2074071833  MEMB      196             0.0000000000
     24367       196  PVCL2     H13R          -20.9889168333      -37.6200280864       -7.6369436362  MEMB      196             0.0000000000
     24368       196  PVCL2     H13S          -22.6449678267      -38.0682487931       -8.0061685706  MEMB      196             0.0000000000
     24369       196  PVCL2     CC14          -22.4644562848      -36.0559363869       -7.4730663406  MEMB      196             0.0000000000
     24370       196  PVCL2     H14R          -22.7327719939      -36.3267325689       -6.4386832130  MEMB      196             0.0000000000
     24371       196  PVCL2     H14S          -23.2489070643      -35.5164932140       -7.9817538784  MEMB      196             0.0000000000
     24372       196  PVCL2     CC15          -21.4295497198      -35.0221560515       -7.3456727081  MEMB      196             0.0000000000
     24373       196  PVCL2     H15R          -21.4221898839      -34.2347051098       -8.0631963893  MEMB      196             0.0000000000
     24374       196  PVCL2     H15S          -20.6628389734      -35.7100409684       -7.6621883207  MEMB      196             0.0000000000
     24375       196  PVCL2     CC16          -21.1730423947      -34.2262049512       -6.0117210210  MEMB      196             0.0000000000
     24376       196  PVCL2     H16R          -21.9377481075      -34.7461586523       -5.4112664481  MEMB      196             0.0000000000
     24377       196  PVCL2     H16S          -21.3889117852      -33.3776110149       -6.4936127551  MEMB      196             0.0000000000
     24378       196  PVCL2     CC17          -19.9461812165      -33.0420107359       -5.4619688600  MEMB      196             0.0000000000
     24379       196  PVCL2     H17R          -20.3797295739      -32.6250207533       -4.5384795279  MEMB      196             0.0000000000
     24380       196  PVCL2     H17S          -19.8562155120      -32.3103661247       -6.2850928125  MEMB      196             0.0000000000
     24381       196  PVCL2     CC18          -18.2795207511      -33.0216176524       -5.2362060130  MEMB      196             0.0000000000
     24382       196  PVCL2     H18R          -17.9306081905      -32.3023474755       -4.6224670900  MEMB      196             0.0000000000
     24383       196  PVCL2     H18S          -17.4916189319      -33.8327288080       -5.4978197857  MEMB      196             0.0000000000
     24384       196  PVCL2     H18T          -17.8657448315      -33.8011982549       -4.6266409224  MEMB      196             0.0000000000
     24385       196  PVCL2     CD3           -30.4204976411      -40.4907388866      -15.0086382989  MEMB      196             0.0000000000
     24386       196  PVCL2     H3X           -31.1785747151      -39.8874246889      -14.4563154044  MEMB      196             0.0000000000
     24387       196  PVCL2     H3Y           -29.6086192111      -39.8211497934      -15.3707483427  MEMB      196             0.0000000000
     24388       196  PVCL2     CD4           -29.7771870549      -41.4949043150      -14.0434989108  MEMB      196             0.0000000000
     24389       196  PVCL2     H4X           -29.1810961580      -42.2259907892      -14.6280138980  MEMB      196             0.0000000000
     24390       196  PVCL2     H4Y           -30.5337769132      -42.0317785419      -13.4763910157  MEMB      196             0.0000000000
     24391       196  PVCL2     CD5           -28.9858085919      -40.9642825702      -12.8549540726  MEMB      196             0.0000000000
     24392       196  PVCL2     H5X           -28.1712294334      -40.3195621679      -13.2260683238  MEMB      196             0.0000000000
     24393       196  PVCL2     H5Y           -28.5259976349      -41.8658067592      -12.3807750966  MEMB      196             0.0000000000
     24394       196  PVCL2     CD6           -29.8316742164      -40.2139601525      -11.8099401225  MEMB      196             0.0000000000
     24395       196  PVCL2     H6X           -30.9039436944      -40.5255671891      -11.7917000537  MEMB      196             0.0000000000
     24396       196  PVCL2     H6Y           -29.8281639967      -39.1378614050      -12.0831657845  MEMB      196             0.0000000000
     24397       196  PVCL2     CD7           -29.2282111893      -40.3219946544      -10.4077893767  MEMB      196             0.0000000000
     24398       196  PVCL2     H7X           -28.1170049978      -40.3252539650      -10.4667471994  MEMB      196             0.0000000000
     24399       196  PVCL2     H7Y           -29.5602941581      -41.2831522431       -9.9508513291  MEMB      196             0.0000000000
     24400       196  PVCL2     CD8           -29.6648052576      -39.1561522815       -9.5212897224  MEMB      196             0.0000000000
     24401       196  PVCL2     H8X           -30.7350439727      -38.9631287163       -9.7648539171  MEMB      196             0.0000000000
     24402       196  PVCL2     H8Y           -29.0968592111      -38.2288147676       -9.7645912426  MEMB      196             0.0000000000
     24403       196  PVCL2     CD9           -29.5022351055      -39.4930790714       -8.0354817270  MEMB      196             0.0000000000
     24404       196  PVCL2     H9X           -28.5032012096      -39.1511084322       -7.6869193496  MEMB      196             0.0000000000
     24405       196  PVCL2     H9Y           -29.5423061656      -40.5969257226       -7.9022577018  MEMB      196             0.0000000000
     24406       196  PVCL2     CD10          -30.5991131327      -38.8737301339       -7.1667877237  MEMB      196             0.0000000000
     24407       196  PVCL2     H10X          -31.5755985258      -39.3495655982       -7.4167256703  MEMB      196             0.0000000000
     24408       196  PVCL2     H10Y          -30.6829971695      -37.8017058422       -7.4509297317  MEMB      196             0.0000000000
     24409       196  PVCL2     CD11          -30.3192197412      -38.9946184879       -5.6550350391  MEMB      196             0.0000000000
     24410       196  PVCL2     H11X          -31.1569925906      -38.4843463245       -5.1276818829  MEMB      196             0.0000000000
     24411       196  PVCL2     H11Y          -29.3863071876      -38.4489313742       -5.3987130666  MEMB      196             0.0000000000
     24412       196  PVCL2     CD12          -30.2026474479      -40.4461781087       -5.1393923442  MEMB      196             0.0000000000
     24413       196  PVCL2     H12X          -29.3478883819      -40.9915607455       -5.5998071611  MEMB      196             0.0000000000
     24414       196  PVCL2     H12Y          -31.1295343314      -40.9558882601       -5.4829794345  MEMB      196             0.0000000000
     24415       196  PVCL2     CD13          -30.0472350926      -40.5623253948       -3.6069429594  MEMB      196             0.0000000000
     24416       196  PVCL2     H13X          -30.2029649478      -41.6224369123       -3.3009132479  MEMB      196             0.0000000000
     24417       196  PVCL2     H13Y          -30.8214446870      -39.9446448557       -3.1013033972  MEMB      196             0.0000000000
     24418       196  PVCL2     CD14          -28.6708219272      -40.1157788635       -3.0846802651  MEMB      196             0.0000000000
     24419       196  PVCL2     H14X          -28.4801181168      -39.0795798672       -3.4374847694  MEMB      196             0.0000000000
     24420       196  PVCL2     H14Y          -27.8748449582      -40.7632043104       -3.5189806286  MEMB      196             0.0000000000
     24421       196  PVCL2     CD15          -28.5749801874      -40.1419989457       -1.5542168984  MEMB      196             0.0000000000
     24422       196  PVCL2     H15X          -29.5139170624      -39.7655274909       -1.0803601993  MEMB      196             0.0000000000
     24423       196  PVCL2     H15Y          -27.7467133117      -39.4728188365       -1.2234669218  MEMB      196             0.0000000000
     24424       196  PVCL2     CD16          -28.2727150021      -41.5254844328       -1.0004556056  MEMB      196             0.0000000000
     24425       196  PVCL2     H16X          -28.2240688709      -41.4371351646        0.0958968873  MEMB      196             0.0000000000
     24426       196  PVCL2     H16Y          -27.2898028634      -41.9094633695       -1.3224619537  MEMB      196             0.0000000000
     24427       196  PVCL2     H16Z          -29.0841067091      -42.2453791499       -1.2449312832  MEMB      196             0.0000000000
     24428       197  PMPG      C13           -36.1543333689       35.9924322714      -21.2777639224  MEMB      197             0.0000000000
     24429       197  PMPG      H13A          -35.9062423723       35.1227352736      -21.9215107726  MEMB      197             0.0000000000
     24430       197  PMPG      H13B          -37.2250293195       35.9120870739      -20.9897689881  MEMB      197             0.0000000000
     24431       197  PMPG      OC3           -35.9471352942       37.1320084775      -22.0954113948  MEMB      197             0.0000000000
     24432       197  PMPG      HO3           -34.9741140147       37.1601996214      -22.1174046255  MEMB      197             0.0000000000
     24433       197  PMPG      C12           -35.2344739193       36.0541405202      -20.0183605683  MEMB      197             0.0000000000
     24434       197  PMPG      H12A          -35.7402990406       36.6530180991      -19.2327581885  MEMB      197             0.0000000000
     24435       197  PMPG      OC2           -33.9807594084       36.6748969821      -20.3362490763  MEMB      197             0.0000000000
     24436       197  PMPG      HO2           -33.4424044323       36.5675341950      -19.5373307174  MEMB      197             0.0000000000
     24437       197  PMPG      C11           -34.9778948035       34.6632274129      -19.4067428715  MEMB      197             0.0000000000
     24438       197  PMPG      H11A          -34.7420002761       34.0289426490      -20.2512241819  MEMB      197             0.0000000000
     24439       197  PMPG      H11B          -35.9249723741       34.2014345248      -19.0687130809  MEMB      197             0.0000000000
     24440       197  PMPG      P             -33.8028583760       33.4409969116      -17.3966610627  MEMB      197             0.0000000000
     24441       197  PMPG      O13           -32.3793160506       33.0499513378      -17.2927365862  MEMB      197             0.0000000000
     24442       197  PMPG      O14           -34.8067361700       32.4234167157      -17.7508631582  MEMB      197             0.0000000000
     24443       197  PMPG      O11           -34.2198833767       34.1232910064      -16.0433766682  MEMB      197             0.0000000000
     24444       197  PMPG      O12           -33.9196913941       34.6602771445      -18.4274774316  MEMB      197             0.0000000000
     24445       197  PMPG      C1            -34.0460596211       35.5284483426      -15.9331202782  MEMB      197             0.0000000000
     24446       197  PMPG      HA            -34.7254380372       36.0650522373      -16.6400966956  MEMB      197             0.0000000000
     24447       197  PMPG      HB            -32.9991399605       35.8268014641      -16.1559712353  MEMB      197             0.0000000000
     24448       197  PMPG      C2            -34.4389502732       35.9811497575      -14.5188145360  MEMB      197             0.0000000000
     24449       197  PMPG      HS            -34.2725233993       37.0893374960      -14.4465534777  MEMB      197             0.0000000000
     24450       197  PMPG      O21           -33.7735635494       35.2344619204      -13.4535150433  MEMB      197             0.0000000000
     24451       197  PMPG      C21           -32.5059978041       35.6004674627      -13.4193948737  MEMB      197             0.0000000000
     24452       197  PMPG      O22           -32.0922369960       36.5428271402      -14.0546663226  MEMB      197             0.0000000000
     24453       197  PMPG      C22           -31.6290328239       34.7381640856      -12.5135479745  MEMB      197             0.0000000000
     24454       197  PMPG      H2R           -30.6232171473       35.1983468369      -12.4192901090  MEMB      197             0.0000000000
     24455       197  PMPG      H2S           -31.5273479318       33.7588018675      -13.0237633381  MEMB      197             0.0000000000
     24456       197  PMPG      C3            -35.9309260675       35.7643592853      -14.3781970149  MEMB      197             0.0000000000
     24457       197  PMPG      HX            -36.1237014012       34.6681667332      -14.5100383801  MEMB      197             0.0000000000
     24458       197  PMPG      HY            -36.4764486646       36.3064570240      -15.1729654400  MEMB      197             0.0000000000
     24459       197  PMPG      O31           -36.2653222262       36.2989949499      -13.1061139134  MEMB      197             0.0000000000
     24460       197  PMPG      C31           -36.6573309312       35.3552766869      -12.2986553266  MEMB      197             0.0000000000
     24461       197  PMPG      O32           -37.1414648764       34.2772646852      -12.5997896231  MEMB      197             0.0000000000
     24462       197  PMPG      C32           -36.8400251036       35.9709259721      -10.9828831823  MEMB      197             0.0000000000
     24463       197  PMPG      H2X           -37.9150605329       35.8098013253      -10.9219630447  MEMB      197             0.0000000000
     24464       197  PMPG      H2Y           -36.5910637909       37.0320035768      -10.8016647228  MEMB      197             0.0000000000
     24465       197  PMPG      C23           -32.2105702599       34.5546521515      -11.1063091977  MEMB      197             0.0000000000
     24466       197  PMPG      H3R           -33.2313061810       34.1533288334      -11.2851076009  MEMB      197             0.0000000000
     24467       197  PMPG      H3S           -32.3481492583       35.5151244914      -10.5753655183  MEMB      197             0.0000000000
     24468       197  PMPG      C24           -31.2734869821       33.7109102605      -10.2206910217  MEMB      197             0.0000000000
     24469       197  PMPG      H4R           -30.3719816109       34.2779459214       -9.9697457645  MEMB      197             0.0000000000
     24470       197  PMPG      H4S           -30.9780407350       32.7899574237      -10.7837445132  MEMB      197             0.0000000000
     24471       197  PMPG      C25           -31.8533084146       33.2963640108       -8.9047195093  MEMB      197             0.0000000000
     24472       197  PMPG      H5R           -32.3759261850       34.0274572424       -8.2440489005  MEMB      197             0.0000000000
     24473       197  PMPG      H5S           -31.2372762780       32.5913484433       -8.2799193612  MEMB      197             0.0000000000
     24474       197  PMPG      C26           -32.8922483625       32.4282588669       -9.3239966445  MEMB      197             0.0000000000
     24475       197  PMPG      H6R           -32.3976333133       31.6352544063       -9.9177437083  MEMB      197             0.0000000000
     24476       197  PMPG      H6S           -33.6485534170       32.8917447801      -10.0512948351  MEMB      197             0.0000000000
     24477       197  PMPG      C27           -33.3855773872       32.0475162796       -7.9228958083  MEMB      197             0.0000000000
     24478       197  PMPG      H7R           -34.2190969380       32.1016051907       -8.6251388737  MEMB      197             0.0000000000
     24479       197  PMPG      H7S           -33.9597938092       32.7008408549       -7.2812127324  MEMB      197             0.0000000000
     24480       197  PMPG      C28           -32.9263389237       30.7291570595       -7.0276792055  MEMB      197             0.0000000000
     24481       197  PMPG      H8R           -31.8381893954       30.7112313790       -7.0330698014  MEMB      197             0.0000000000
     24482       197  PMPG      H8S           -33.1166310235       29.6765439482       -7.3342463671  MEMB      197             0.0000000000
     24483       197  PMPG      C29           -33.5806701113       30.5411187855       -5.5993840466  MEMB      197             0.0000000000
     24484       197  PMPG      H9R           -34.5142748578       30.0033771883       -5.4072426171  MEMB      197             0.0000000000
     24485       197  PMPG      C217          -32.6995741924       30.1337338128       -4.4697449824  MEMB      197             0.0000000000
     24486       197  PMPG      H17R          -33.2551214895       29.6366627048       -3.7069979436  MEMB      197             0.0000000000
     24487       197  PMPG      H17S          -31.7673471707       29.8275534201       -4.9092413683  MEMB      197             0.0000000000
     24488       197  PMPG      C210          -33.2649205141       31.5558758851       -4.6236601101  MEMB      197             0.0000000000
     24489       197  PMPG      H10R          -34.0535097188       31.8550708476       -3.9053679909  MEMB      197             0.0000000000
     24490       197  PMPG      C211          -32.4089956249       32.5826798609       -5.2640235430  MEMB      197             0.0000000000
     24491       197  PMPG      H11R          -31.5056524532       32.1422844911       -5.7718106964  MEMB      197             0.0000000000
     24492       197  PMPG      H11S          -32.9132526026       33.3617125583       -5.8495350897  MEMB      197             0.0000000000
     24493       197  PMPG      C212          -31.8411452666       33.2978604171       -4.1878404764  MEMB      197             0.0000000000
     24494       197  PMPG      H12R          -32.3733679211       34.0108709172       -3.5289009114  MEMB      197             0.0000000000
     24495       197  PMPG      H12S          -31.1012048495       33.9404446791       -4.7341051546  MEMB      197             0.0000000000
     24496       197  PMPG      C213          -31.2767986377       32.1827318799       -3.3195529399  MEMB      197             0.0000000000
     24497       197  PMPG      H13R          -30.5384219044       31.5174207325       -3.9110577441  MEMB      197             0.0000000000
     24498       197  PMPG      H13S          -31.8508815275       31.6207359070       -2.5739787259  MEMB      197             0.0000000000
     24499       197  PMPG      C214          -30.5592596742       32.8344792044       -2.2824000360  MEMB      197             0.0000000000
     24500       197  PMPG      H14R          -30.4069158510       33.6645574601       -2.9528550706  MEMB      197             0.0000000000
     24501       197  PMPG      H14S          -29.6320205352       32.2106108592       -2.4564990826  MEMB      197             0.0000000000
     24502       197  PMPG      C215          -30.8996195627       33.7847404870       -0.9655110585  MEMB      197             0.0000000000
     24503       197  PMPG      H15R          -31.1423887503       32.9435269371       -0.2889877166  MEMB      197             0.0000000000
     24504       197  PMPG      H15S          -31.6990197765       34.4914268696       -1.1776661690  MEMB      197             0.0000000000
     24505       197  PMPG      C216          -29.9485781810       34.8838697152       -0.1495368202  MEMB      197             0.0000000000
     24506       197  PMPG      H16R          -29.3347905641       34.0161351191        0.0660271255  MEMB      197             0.0000000000
     24507       197  PMPG      H16S          -29.8697592766       35.2458244436        0.8718312954  MEMB      197             0.0000000000
     24508       197  PMPG      H16T          -29.1845388276       35.5762699293       -0.5242365770  MEMB      197             0.0000000000
     24509       197  PMPG      C33           -36.8707025337       35.0193186143       -9.8985932592  MEMB      197             0.0000000000
     24510       197  PMPG      H3X           -35.8846235935       34.5803208385       -9.8539253543  MEMB      197             0.0000000000
     24511       197  PMPG      H3Y           -37.5750566694       34.1589848137      -10.1880423608  MEMB      197             0.0000000000
     24512       197  PMPG      C34           -37.3026204000       35.7185384133       -8.6320568944  MEMB      197             0.0000000000
     24513       197  PMPG      H4X           -38.2932161086       36.2279649983       -8.6314003537  MEMB      197             0.0000000000
     24514       197  PMPG      H4Y           -36.7950041070       36.5540457267       -8.1580783214  MEMB      197             0.0000000000
     24515       197  PMPG      C35           -37.2806312232       34.5329530551       -7.7734743339  MEMB      197             0.0000000000
     24516       197  PMPG      H5X           -37.4691335526       33.5664281889       -8.3135282981  MEMB      197             0.0000000000
     24517       197  PMPG      H5Y           -38.1668997382       34.8323853710       -7.2475031658  MEMB      197             0.0000000000
     24518       197  PMPG      C36           -35.9996733236       34.3488222530       -7.0234447915  MEMB      197             0.0000000000
     24519       197  PMPG      H6X           -35.2776963794       34.0512813929       -7.7876423703  MEMB      197             0.0000000000
     24520       197  PMPG      H6Y           -36.1013374606       33.4958664217       -6.3723938931  MEMB      197             0.0000000000
     24521       197  PMPG      C37           -35.4748829921       35.4779344610       -6.1333705356  MEMB      197             0.0000000000
     24522       197  PMPG      H7X           -35.5735464342       36.4719452926       -6.5681990747  MEMB      197             0.0000000000
     24523       197  PMPG      H7Y           -34.5727224778       35.1214377344       -5.5712070758  MEMB      197             0.0000000000
     24524       197  PMPG      C38           -36.3394451275       35.7364201317       -4.9950204153  MEMB      197             0.0000000000
     24525       197  PMPG      H8X           -36.2441759394       34.6356475736       -4.7540244007  MEMB      197             0.0000000000
     24526       197  PMPG      H8Y           -37.3108440535       36.1585709341       -5.3412794278  MEMB      197             0.0000000000
     24527       197  PMPG      C39           -36.1415407420       36.5862997748       -3.7638287252  MEMB      197             0.0000000000
     24528       197  PMPG      H9X           -36.4372510981       37.6262252668       -4.0989191640  MEMB      197             0.0000000000
     24529       197  PMPG      H9Y           -35.2608531144       36.4079460989       -3.1634465573  MEMB      197             0.0000000000
     24530       197  PMPG      C310          -36.9316769642       36.1911904751       -2.5351509270  MEMB      197             0.0000000000
     24531       197  PMPG      H10X          -37.9095127576       36.6262432148       -3.0238519839  MEMB      197             0.0000000000
     24532       197  PMPG      H10Y          -37.2653828125       37.0696792162       -1.9292996523  MEMB      197             0.0000000000
     24533       197  PMPG      C311          -36.8100620119       34.4535777714       -1.8443611560  MEMB      197             0.0000000000
     24534       197  PMPG      H11X          -37.2965235319       33.4793987365       -2.1830001275  MEMB      197             0.0000000000
     24535       197  PMPG      H11Y          -37.5956076189       33.8623049818       -1.2201909000  MEMB      197             0.0000000000
     24536       197  PMPG      C312          -35.7444928070       33.9233002414       -1.3439392966  MEMB      197             0.0000000000
     24537       197  PMPG      H12X          -35.2757482809       33.9640339488       -2.3542167750  MEMB      197             0.0000000000
     24538       197  PMPG      H12Y          -36.0690705228       32.8951996782       -0.9306594863  MEMB      197             0.0000000000
     24539       197  PMPG      C313          -35.3957695392       34.8437458703       -0.2856586616  MEMB      197             0.0000000000
     24540       197  PMPG      H13X          -36.0067359038       34.9394015439        0.6464882453  MEMB      197             0.0000000000
     24541       197  PMPG      H13Y          -35.2183352161       35.8722510145       -0.6774991502  MEMB      197             0.0000000000
     24542       197  PMPG      C314          -34.3290624525       33.9607643565        0.0754356140  MEMB      197             0.0000000000
     24543       197  PMPG      H14X          -33.6732179034       33.8584048329       -0.8353686192  MEMB      197             0.0000000000
     24544       197  PMPG      H14Y          -34.7480111780       32.9736081866        0.3898361546  MEMB      197             0.0000000000
     24545       197  PMPG      C315          -33.7250031776       34.6128710871        1.1727854554  MEMB      197             0.0000000000
     24546       197  PMPG      H15X          -32.7621584171       34.2424526619        0.9387093431  MEMB      197             0.0000000000
     24547       197  PMPG      H15Y          -34.0637892544       34.3374960158        2.2042776893  MEMB      197             0.0000000000
     24548       197  PMPG      C316          -33.4643669063       36.0434636778        0.9163977206  MEMB      197             0.0000000000
     24549       197  PMPG      H16X          -34.2849533077       36.7285386487        1.2331887366  MEMB      197             0.0000000000
     24550       197  PMPG      H16Y          -32.8130703047       36.4213896009        0.1164834027  MEMB      197             0.0000000000
     24551       197  PMPG      H16Z          -32.6609872817       35.9611791843        1.6319768292  MEMB      197             0.0000000000
     24552       198  PMPE      N              36.6441309201       32.0753607566      -18.7170227521  MEMB      198             0.0000000000
     24553       198  PMPE      HN1            36.1155772973       31.5594304180      -17.9860254665  MEMB      198             0.0000000000
     24554       198  PMPE      HN2            35.9465327315       32.5243805037      -19.3541673305  MEMB      198             0.0000000000
     24555       198  PMPE      HN3            37.2386757575       31.3652275511      -19.2025634525  MEMB      198             0.0000000000
     24556       198  PMPE      C12            37.4149397670       33.2259214860      -18.1159649253  MEMB      198             0.0000000000
     24557       198  PMPE      H12A           38.1036031459       33.6268215592      -18.8945790364  MEMB      198             0.0000000000
     24558       198  PMPE      H12B           37.9807604622       32.8602187889      -17.2374051848  MEMB      198             0.0000000000
     24559       198  PMPE      C11            36.4229069670       34.3134336508      -17.7061004639  MEMB      198             0.0000000000
     24560       198  PMPE      H11A           36.9095735166       35.0756128422      -17.0475480129  MEMB      198             0.0000000000
     24561       198  PMPE      H11B           35.6005028515       33.8773184645      -17.0985395694  MEMB      198             0.0000000000
     24562       198  PMPE      P              36.3329946854       36.1962230112      -19.5704313585  MEMB      198             0.0000000000
     24563       198  PMPE      O13            35.1496178897       37.0029969869      -19.9171928961  MEMB      198             0.0000000000
     24564       198  PMPE      O14            37.2826404191       35.8209018838      -20.6423250864  MEMB      198             0.0000000000
     24565       198  PMPE      O11            37.1355218465       36.8896543654      -18.4160279392  MEMB      198             0.0000000000
     24566       198  PMPE      O12            35.8469683957       34.8455352010      -18.8865698060  MEMB      198             0.0000000000
     24567       198  PMPE      C1             36.5370462679       37.8373724465      -17.5517047921  MEMB      198             0.0000000000
     24568       198  PMPE      HA             35.6942987105       37.3903828068      -16.9818119150  MEMB      198             0.0000000000
     24569       198  PMPE      HB             36.1435155171       38.6780252528      -18.1477691219  MEMB      198             0.0000000000
     24570       198  PMPE      C2             37.5846984093       38.4127923494      -16.5690199685  MEMB      198             0.0000000000
     24571       198  PMPE      HS             38.4195420594       38.8370527899      -17.1765996757  MEMB      198             0.0000000000
     24572       198  PMPE      O21            38.0230080569       37.3912508787      -15.6484611857  MEMB      198             0.0000000000
     24573       198  PMPE      C21            39.0972001683       36.6987585651      -15.9887267420  MEMB      198             0.0000000000
     24574       198  PMPE      O22            39.6592840767       36.7323053668      -17.0659189766  MEMB      198             0.0000000000
     24575       198  PMPE      C22            39.6690242126       35.9946672693      -14.7474684391  MEMB      198             0.0000000000
     24576       198  PMPE      H2R            40.7204869338       35.7320789575      -15.0061091776  MEMB      198             0.0000000000
     24577       198  PMPE      H2S            39.1444946226       35.0383804139      -14.5649953795  MEMB      198             0.0000000000
     24578       198  PMPE      C3             36.9886674518       39.5624927286      -15.7134039590  MEMB      198             0.0000000000
     24579       198  PMPE      HX             36.9227700360       40.5054779928      -16.3009368400  MEMB      198             0.0000000000
     24580       198  PMPE      HY             37.6485668262       39.7317946974      -14.8311068895  MEMB      198             0.0000000000
     24581       198  PMPE      O31            35.6796406347       39.2161514940      -15.3191317870  MEMB      198             0.0000000000
     24582       198  PMPE      C31            35.5825499292       38.4532720834      -14.2629102219  MEMB      198             0.0000000000
     24583       198  PMPE      O32            36.3331037704       38.4165088774      -13.3013367506  MEMB      198             0.0000000000
     24584       198  PMPE      C32            34.2755066394       37.6791970416      -14.4530176417  MEMB      198             0.0000000000
     24585       198  PMPE      H2X            34.0905285599       37.2768586289      -15.4432119885  MEMB      198             0.0000000000
     24586       198  PMPE      H2Y            33.6392897428       38.5659627627      -14.5088637980  MEMB      198             0.0000000000
     24587       198  PMPE      C23            39.5334572834       36.9308727521      -13.5053424956  MEMB      198             0.0000000000
     24588       198  PMPE      H3R            38.4728415874       37.0483806291      -13.2266159797  MEMB      198             0.0000000000
     24589       198  PMPE      H3S            40.0107587322       37.9148507214      -13.7330969902  MEMB      198             0.0000000000
     24590       198  PMPE      C24            40.2393889702       36.4779206668      -12.2528566726  MEMB      198             0.0000000000
     24591       198  PMPE      H4R            41.1556641502       36.2913005074      -12.8101615182  MEMB      198             0.0000000000
     24592       198  PMPE      H4S            39.9591765635       35.4795921585      -11.8481282673  MEMB      198             0.0000000000
     24593       198  PMPE      C25            40.5764842753       37.5586720861      -11.1651932740  MEMB      198             0.0000000000
     24594       198  PMPE      H5R            41.2999987298       38.2983267108      -11.5420155538  MEMB      198             0.0000000000
     24595       198  PMPE      H5S            41.1541316708       37.3077196049      -10.2510645948  MEMB      198             0.0000000000
     24596       198  PMPE      C26            39.4267947348       37.9283567100      -10.3178814530  MEMB      198             0.0000000000
     24597       198  PMPE      H6R            38.9284060807       38.5938014597      -11.0504456435  MEMB      198             0.0000000000
     24598       198  PMPE      H6S            39.7884469830       38.5378398965       -9.4539477671  MEMB      198             0.0000000000
     24599       198  PMPE      C27            38.5307649996       36.7581343180       -9.8101836609  MEMB      198             0.0000000000
     24600       198  PMPE      H7R            38.2186828512       36.0399045144      -10.5888309704  MEMB      198             0.0000000000
     24601       198  PMPE      H7S            37.5923878916       37.1814940783       -9.4115758882  MEMB      198             0.0000000000
     24602       198  PMPE      C28            38.9338941943       36.0384200951       -8.5407985587  MEMB      198             0.0000000000
     24603       198  PMPE      H8R            37.9905392299       35.6894336696       -8.0521243418  MEMB      198             0.0000000000
     24604       198  PMPE      H8S            39.4435294627       36.7377562353       -7.8478117341  MEMB      198             0.0000000000
     24605       198  PMPE      C29            39.7971805365       34.8656767905       -8.8434801303  MEMB      198             0.0000000000
     24606       198  PMPE      H9R            40.5076540434       34.8798698443       -9.6397426604  MEMB      198             0.0000000000
     24607       198  PMPE      C217           39.0934365608       33.7293425797       -9.3527999667  MEMB      198             0.0000000000
     24608       198  PMPE      H17R           39.7199177481       33.0107561828       -9.9139195751  MEMB      198             0.0000000000
     24609       198  PMPE      H17S           38.0367654202       33.7441231508       -9.2009384715  MEMB      198             0.0000000000
     24610       198  PMPE      C210           39.6993597157       33.7253027503       -7.9720311811  MEMB      198             0.0000000000
     24611       198  PMPE      H10R           40.5697108726       33.0391151526       -7.9191612073  MEMB      198             0.0000000000
     24612       198  PMPE      C211           38.9636461578       34.1050845411       -6.7485974743  MEMB      198             0.0000000000
     24613       198  PMPE      H11R           38.0103554745       33.5949249076       -6.5978878663  MEMB      198             0.0000000000
     24614       198  PMPE      H11S           38.7903417379       35.1159731116       -6.3625691023  MEMB      198             0.0000000000
     24615       198  PMPE      C212           40.0489283629       33.7200927894       -5.9288623730  MEMB      198             0.0000000000
     24616       198  PMPE      H12R           40.4133867648       32.7211145254       -6.1197599114  MEMB      198             0.0000000000
     24617       198  PMPE      H12S           39.5032016463       33.8170851483       -5.1069740941  MEMB      198             0.0000000000
     24618       198  PMPE      C213           40.8627696362       34.6502140339       -5.1482326641  MEMB      198             0.0000000000
     24619       198  PMPE      H13R           40.6357554404       35.6543568099       -5.4651040842  MEMB      198             0.0000000000
     24620       198  PMPE      H13S           41.7936048628       34.1377921735       -5.5841776813  MEMB      198             0.0000000000
     24621       198  PMPE      C214           41.1855285459       34.4905748726       -3.6684661401  MEMB      198             0.0000000000
     24622       198  PMPE      H14R           42.1431707158       34.6378027660       -3.7542971849  MEMB      198             0.0000000000
     24623       198  PMPE      H14S           42.0144925537       33.7318323818       -3.7669861009  MEMB      198             0.0000000000
     24624       198  PMPE      C215           40.5924684562       35.1586452003       -2.1201472969  MEMB      198             0.0000000000
     24625       198  PMPE      H15R           40.4559794420       34.1748847801       -1.9369909932  MEMB      198             0.0000000000
     24626       198  PMPE      H15S           40.0832592626       35.7664514403       -2.8114551817  MEMB      198             0.0000000000
     24627       198  PMPE      C216           41.1735357655       35.6520910906       -0.5325220921  MEMB      198             0.0000000000
     24628       198  PMPE      H16R           40.6380834406       36.4258158779       -0.0996923179  MEMB      198             0.0000000000
     24629       198  PMPE      H16S           41.6431772806       34.8921528904        0.1889650081  MEMB      198             0.0000000000
     24630       198  PMPE      H16T           42.2339344483       36.0783183608       -0.4449606317  MEMB      198             0.0000000000
     24631       198  PMPE      C33            33.9557042333       36.6371696043      -13.3316645027  MEMB      198             0.0000000000
     24632       198  PMPE      H3X            34.2642062308       37.2638893968      -12.4978122186  MEMB      198             0.0000000000
     24633       198  PMPE      H3Y            34.6924533888       35.8219396037      -13.2881225710  MEMB      198             0.0000000000
     24634       198  PMPE      C34            32.4719587095       36.1171403681      -13.1499672509  MEMB      198             0.0000000000
     24635       198  PMPE      H4X            32.1568289633       35.5768399567      -14.0523919028  MEMB      198             0.0000000000
     24636       198  PMPE      H4Y            31.6812882297       36.8815094703      -12.9891460211  MEMB      198             0.0000000000
     24637       198  PMPE      C35            32.2213480461       35.1859680668      -11.9640520588  MEMB      198             0.0000000000
     24638       198  PMPE      H5X            31.1580835789       35.1902318652      -11.6125587560  MEMB      198             0.0000000000
     24639       198  PMPE      H5Y            32.8292904098       35.5470923049      -11.1506332601  MEMB      198             0.0000000000
     24640       198  PMPE      C36            32.9200981928       33.8776444710      -12.1406027495  MEMB      198             0.0000000000
     24641       198  PMPE      H6X            33.9725119945       34.1305981324      -12.3390347864  MEMB      198             0.0000000000
     24642       198  PMPE      H6Y            32.3819253755       33.3805511806      -12.9666479136  MEMB      198             0.0000000000
     24643       198  PMPE      C37            33.1134436860       32.9925457611      -10.9428713577  MEMB      198             0.0000000000
     24644       198  PMPE      H7X            33.5199863291       31.9832858349      -11.0767249806  MEMB      198             0.0000000000
     24645       198  PMPE      H7Y            32.1078507995       32.7675331149      -10.6806391216  MEMB      198             0.0000000000
     24646       198  PMPE      C38            33.4439622476       33.5855917971       -9.6314797405  MEMB      198             0.0000000000
     24647       198  PMPE      H8X            32.8975536728       32.7390307799       -9.1131239637  MEMB      198             0.0000000000
     24648       198  PMPE      H8Y            32.9938721812       34.5717878488       -9.4215285111  MEMB      198             0.0000000000
     24649       198  PMPE      C39            34.8387063727       33.5287663355       -9.1387724710  MEMB      198             0.0000000000
     24650       198  PMPE      H9X            35.3485405536       34.1365723030       -9.8982740178  MEMB      198             0.0000000000
     24651       198  PMPE      H9Y            35.0111543422       32.4370581485       -9.1586158415  MEMB      198             0.0000000000
     24652       198  PMPE      C310           35.1568990183       34.0445500276       -7.7400926050  MEMB      198             0.0000000000
     24653       198  PMPE      H10X           36.2356912182       33.9814482060       -7.5357411781  MEMB      198             0.0000000000
     24654       198  PMPE      H10Y           34.7690012345       33.2816528875       -7.0231899431  MEMB      198             0.0000000000
     24655       198  PMPE      C311           34.7097022774       35.4934917658       -7.4575481557  MEMB      198             0.0000000000
     24656       198  PMPE      H11X           33.7954502822       35.8053747495       -7.9891603705  MEMB      198             0.0000000000
     24657       198  PMPE      H11Y           35.4803150961       36.1936153508       -7.8121079101  MEMB      198             0.0000000000
     24658       198  PMPE      C312           34.6546167318       35.7044379280       -5.9762657376  MEMB      198             0.0000000000
     24659       198  PMPE      H12X           33.9281557643       35.4010813992       -5.2778310808  MEMB      198             0.0000000000
     24660       198  PMPE      H12Y           33.9358728430       36.4412279629       -5.5228902638  MEMB      198             0.0000000000
     24661       198  PMPE      C313           35.8676120951       35.1087261521       -5.3865078580  MEMB      198             0.0000000000
     24662       198  PMPE      H13X           36.8302856934       35.6438119199       -5.5094632732  MEMB      198             0.0000000000
     24663       198  PMPE      H13Y           35.8466930463       34.0099032525       -5.3443325526  MEMB      198             0.0000000000
     24664       198  PMPE      C314           35.7395526655       35.4792053249       -4.0688404675  MEMB      198             0.0000000000
     24665       198  PMPE      H14X           34.6956882030       35.1449187880       -3.7571555419  MEMB      198             0.0000000000
     24666       198  PMPE      H14Y           35.6886568266       36.5188582926       -4.1785670337  MEMB      198             0.0000000000
     24667       198  PMPE      C315           36.9686531683       35.4547635583       -3.1544502905  MEMB      198             0.0000000000
     24668       198  PMPE      H15X           37.1232550821       34.4242935408       -3.2110259561  MEMB      198             0.0000000000
     24669       198  PMPE      H15Y           36.7533223906       35.5230512385       -2.1115866313  MEMB      198             0.0000000000
     24670       198  PMPE      C316           37.9664095559       36.5584982808       -2.7588294596  MEMB      198             0.0000000000
     24671       198  PMPE      H16X           37.5772938818       37.5246680549       -2.3829446878  MEMB      198             0.0000000000
     24672       198  PMPE      H16Y           38.5679079623       36.6620038286       -3.6624171181  MEMB      198             0.0000000000
     24673       198  PMPE      H16Z           38.5569274698       36.2269429010       -1.8471805832  MEMB      198             0.0000000000
     24674       199  PMPE      N              30.5467900720      -39.2090845843      -20.5432808550  MEMB      199             0.0000000000
     24675       199  PMPE      HN1            29.6759144872      -39.2709420360      -19.9567337272  MEMB      199             0.0000000000
     24676       199  PMPE      HN2            30.8987734807      -38.2524345636      -20.3114988630  MEMB      199             0.0000000000
     24677       199  PMPE      HN3            30.3161026191      -39.3572856845      -21.5463608980  MEMB      199             0.0000000000
     24678       199  PMPE      C12            31.6110412027      -40.2192066954      -20.0732974969  MEMB      199             0.0000000000
     24679       199  PMPE      H12A           31.3111249809      -41.2354052037      -20.3605692147  MEMB      199             0.0000000000
     24680       199  PMPE      H12B           31.7773870479      -40.3325760405      -19.0014833059  MEMB      199             0.0000000000
     24681       199  PMPE      C11            32.9658748038      -39.6603218704      -20.3233888186  MEMB      199             0.0000000000
     24682       199  PMPE      H11A           33.1170873696      -39.4732511496      -21.3924087403  MEMB      199             0.0000000000
     24683       199  PMPE      H11B           33.6627118595      -40.4753212109      -19.9641082998  MEMB      199             0.0000000000
     24684       199  PMPE      P              34.0287553003      -38.3443996719      -18.3628882225  MEMB      199             0.0000000000
     24685       199  PMPE      O13            34.2379557487      -36.9601480475      -17.9422703392  MEMB      199             0.0000000000
     24686       199  PMPE      O14            35.1927629739      -39.1900938288      -18.6060544768  MEMB      199             0.0000000000
     24687       199  PMPE      O11            33.1402634584      -39.1158852679      -17.3468634250  MEMB      199             0.0000000000
     24688       199  PMPE      O12            33.0389273715      -38.4026128885      -19.6306224228  MEMB      199             0.0000000000
     24689       199  PMPE      C1             32.1689165057      -38.3488200775      -16.6805911256  MEMB      199             0.0000000000
     24690       199  PMPE      HA             31.3287742519      -38.9543409570      -16.6501974701  MEMB      199             0.0000000000
     24691       199  PMPE      HB             31.8203020965      -37.4126962778      -17.1839115520  MEMB      199             0.0000000000
     24692       199  PMPE      C2             32.3508280821      -38.2503661392      -15.1797269493  MEMB      199             0.0000000000
     24693       199  PMPE      HS             33.2843509241      -37.6858580740      -15.0286894712  MEMB      199             0.0000000000
     24694       199  PMPE      O21            32.2375120109      -39.5134892712      -14.4869927301  MEMB      199             0.0000000000
     24695       199  PMPE      C21            32.7122849260      -39.3655072652      -13.2505519688  MEMB      199             0.0000000000
     24696       199  PMPE      O22            33.3958861313      -38.4428149912      -12.8727689471  MEMB      199             0.0000000000
     24697       199  PMPE      C22            32.4192150591      -40.5593048101      -12.3781322233  MEMB      199             0.0000000000
     24698       199  PMPE      H2R            32.5869595839      -41.3385161019      -13.0489304260  MEMB      199             0.0000000000
     24699       199  PMPE      H2S            31.3667329141      -40.7666842971      -12.1859910780  MEMB      199             0.0000000000
     24700       199  PMPE      C3             31.2570154408      -37.4160222338      -14.6667743220  MEMB      199             0.0000000000
     24701       199  PMPE      HX             30.4417423984      -38.1324949012      -14.5061591346  MEMB      199             0.0000000000
     24702       199  PMPE      HY             30.9898625282      -36.6704172735      -15.4434583461  MEMB      199             0.0000000000
     24703       199  PMPE      O31            31.4954759536      -36.9722370742      -13.3589484353  MEMB      199             0.0000000000
     24704       199  PMPE      C31            32.0892178045      -35.8291112107      -13.0726397525  MEMB      199             0.0000000000
     24705       199  PMPE      O32            32.4738693098      -35.0068409985      -13.8596918585  MEMB      199             0.0000000000
     24706       199  PMPE      C32            32.0910904045      -35.5761357040      -11.5635689934  MEMB      199             0.0000000000
     24707       199  PMPE      H2X            31.9346238544      -36.5010626763      -10.9275680540  MEMB      199             0.0000000000
     24708       199  PMPE      H2Y            31.3173957775      -34.7695678634      -11.4544357621  MEMB      199             0.0000000000
     24709       199  PMPE      C23            33.3642648150      -40.6461906320      -11.1543599634  MEMB      199             0.0000000000
     24710       199  PMPE      H3R            32.9393814488      -39.8641785139      -10.5003585261  MEMB      199             0.0000000000
     24711       199  PMPE      H3S            34.4272715642      -40.3819270159      -11.3721689608  MEMB      199             0.0000000000
     24712       199  PMPE      C24            33.3939721037      -41.9555580264      -10.3505657989  MEMB      199             0.0000000000
     24713       199  PMPE      H4R            33.9851223887      -41.8091114159       -9.4450575511  MEMB      199             0.0000000000
     24714       199  PMPE      H4S            33.9639184950      -42.8014953612      -10.7609642014  MEMB      199             0.0000000000
     24715       199  PMPE      C25            32.0311066059      -42.4674394369       -9.9819860790  MEMB      199             0.0000000000
     24716       199  PMPE      H5R            32.1718242785      -43.4489583021       -9.5205552197  MEMB      199             0.0000000000
     24717       199  PMPE      H5S            31.4188542214      -42.6220176903      -10.8837803331  MEMB      199             0.0000000000
     24718       199  PMPE      C26            31.3217693007      -41.6129009745       -9.0242822887  MEMB      199             0.0000000000
     24719       199  PMPE      H6R            30.3373063938      -42.1126035717       -8.8787880780  MEMB      199             0.0000000000
     24720       199  PMPE      H6S            31.2754029455      -40.6319027275       -9.5355682272  MEMB      199             0.0000000000
     24721       199  PMPE      C27            31.9648171211      -41.5523336290       -7.6696772142  MEMB      199             0.0000000000
     24722       199  PMPE      H7R            32.9886503099      -41.1569124502       -7.7757048944  MEMB      199             0.0000000000
     24723       199  PMPE      H7S            31.9674690719      -42.6030813568       -7.3352711887  MEMB      199             0.0000000000
     24724       199  PMPE      C28            31.1961083518      -40.7651482754       -6.6272423200  MEMB      199             0.0000000000
     24725       199  PMPE      H8R            31.5493321093      -41.0007641729       -5.6118989801  MEMB      199             0.0000000000
     24726       199  PMPE      H8S            30.1828228743      -41.2084617865       -6.6047845283  MEMB      199             0.0000000000
     24727       199  PMPE      C29            31.2207779689      -39.2697432104       -7.0059980884  MEMB      199             0.0000000000
     24728       199  PMPE      H9R            30.6475079783      -38.8714892284       -7.8474375153  MEMB      199             0.0000000000
     24729       199  PMPE      C217           32.4728402445      -38.4389098280       -6.8526759920  MEMB      199             0.0000000000
     24730       199  PMPE      H17R           32.5003697347      -37.5984682444       -7.5315418971  MEMB      199             0.0000000000
     24731       199  PMPE      H17S           33.2859507011      -38.8605371009       -6.2912391940  MEMB      199             0.0000000000
     24732       199  PMPE      C210           31.2890659879      -38.2557523095       -5.9512894580  MEMB      199             0.0000000000
     24733       199  PMPE      H10R           30.7817769024      -37.2825889245       -6.0917657723  MEMB      199             0.0000000000
     24734       199  PMPE      C211           31.6165543574      -38.6321986244       -4.5976799364  MEMB      199             0.0000000000
     24735       199  PMPE      H11R           32.4807029935      -39.2598700068       -4.3438256486  MEMB      199             0.0000000000
     24736       199  PMPE      H11S           30.8702778275      -39.4117058434       -4.2795627766  MEMB      199             0.0000000000
     24737       199  PMPE      C212           31.6652383852      -37.1817488982       -3.9411223042  MEMB      199             0.0000000000
     24738       199  PMPE      H12R           30.6716812411      -36.6931275478       -3.7136473723  MEMB      199             0.0000000000
     24739       199  PMPE      H12S           32.3367897469      -36.4197711492       -4.3372139390  MEMB      199             0.0000000000
     24740       199  PMPE      C213           32.3389062177      -37.3724835201       -2.6417904933  MEMB      199             0.0000000000
     24741       199  PMPE      H13R           33.3086559181      -37.8499575497       -2.6675296499  MEMB      199             0.0000000000
     24742       199  PMPE      H13S           31.5256208870      -38.1029262900       -2.6789054234  MEMB      199             0.0000000000
     24743       199  PMPE      C214           32.2100105388      -36.3464755668       -1.5189305205  MEMB      199             0.0000000000
     24744       199  PMPE      H14R           31.0831685640      -36.2958985078       -1.3561738015  MEMB      199             0.0000000000
     24745       199  PMPE      H14S           32.5285597440      -35.5150393308       -2.0571122901  MEMB      199             0.0000000000
     24746       199  PMPE      C215           33.1383664773      -36.1761300495       -0.1678762289  MEMB      199             0.0000000000
     24747       199  PMPE      H15R           33.6453822234      -36.9743553935        0.4781175523  MEMB      199             0.0000000000
     24748       199  PMPE      H15S           32.5123749212      -35.9589314939        0.6425219757  MEMB      199             0.0000000000
     24749       199  PMPE      C216           34.3214587266      -35.5310278139       -0.1791793619  MEMB      199             0.0000000000
     24750       199  PMPE      H16R           34.8516273129      -35.6008976592        0.8096153115  MEMB      199             0.0000000000
     24751       199  PMPE      H16S           34.6817108344      -35.7107092003       -1.1703011097  MEMB      199             0.0000000000
     24752       199  PMPE      H16T           34.2037458982      -34.5503771330       -0.3418114676  MEMB      199             0.0000000000
     24753       199  PMPE      C33            33.1670919743      -34.9612314431      -10.8758141978  MEMB      199             0.0000000000
     24754       199  PMPE      H3X            32.8839741341      -34.7820121423       -9.8093467467  MEMB      199             0.0000000000
     24755       199  PMPE      H3Y            33.2189720899      -34.0121449711      -11.4416000776  MEMB      199             0.0000000000
     24756       199  PMPE      C34            34.1392927448      -36.0653746532      -11.0568098435  MEMB      199             0.0000000000
     24757       199  PMPE      H4X            34.1768481931      -36.3044741143      -12.1491091175  MEMB      199             0.0000000000
     24758       199  PMPE      H4Y            33.8532381883      -37.0141443907      -10.5357614764  MEMB      199             0.0000000000
     24759       199  PMPE      C35            35.4475736227      -35.5299222197      -10.6546593477  MEMB      199             0.0000000000
     24760       199  PMPE      H5X            35.4344985398      -35.1745053023       -9.6050186620  MEMB      199             0.0000000000
     24761       199  PMPE      H5Y            35.5630890884      -34.6352431896      -11.3128695474  MEMB      199             0.0000000000
     24762       199  PMPE      C36            36.5276207377      -36.5512848772      -10.9461627909  MEMB      199             0.0000000000
     24763       199  PMPE      H6X            37.4772576901      -35.9959794143      -11.0370897734  MEMB      199             0.0000000000
     24764       199  PMPE      H6Y            36.2966082296      -37.0015508984      -11.9392170159  MEMB      199             0.0000000000
     24765       199  PMPE      C37            36.6745092823      -37.6171643281       -9.8573763205  MEMB      199             0.0000000000
     24766       199  PMPE      H7X            35.6746280669      -37.9126148796       -9.4676622474  MEMB      199             0.0000000000
     24767       199  PMPE      H7Y            37.2421409245      -37.1944026525       -8.9988401512  MEMB      199             0.0000000000
     24768       199  PMPE      C38            37.3682495343      -38.8985259486      -10.3038690360  MEMB      199             0.0000000000
     24769       199  PMPE      H8X            38.4768410041      -38.7839780926      -10.3581360070  MEMB      199             0.0000000000
     24770       199  PMPE      H8Y            37.0006677271      -39.2540513679      -11.2937653639  MEMB      199             0.0000000000
     24771       199  PMPE      C39            37.0233936012      -40.0301773339       -9.3548687740  MEMB      199             0.0000000000
     24772       199  PMPE      H9X            37.4500960246      -40.8540878105       -9.8815869123  MEMB      199             0.0000000000
     24773       199  PMPE      H9Y            35.9493703823      -40.2817690806       -9.4004194335  MEMB      199             0.0000000000
     24774       199  PMPE      C310           37.6333941380      -39.8229011640       -7.9615718458  MEMB      199             0.0000000000
     24775       199  PMPE      H10X           37.2808758113      -38.8316990836       -7.5969825775  MEMB      199             0.0000000000
     24776       199  PMPE      H10Y           38.7374154532      -39.8326446329       -8.0340934324  MEMB      199             0.0000000000
     24777       199  PMPE      C311           37.2369080484      -40.8092355008       -6.8927706822  MEMB      199             0.0000000000
     24778       199  PMPE      H11X           37.5508419421      -40.4520106653       -5.8870155611  MEMB      199             0.0000000000
     24779       199  PMPE      H11Y           37.7238469327      -41.8052680667       -7.0345460444  MEMB      199             0.0000000000
     24780       199  PMPE      C312           35.7336880088      -40.8875077632       -6.8945441408  MEMB      199             0.0000000000
     24781       199  PMPE      H12X           35.4503842632      -41.5530140684       -7.7820543100  MEMB      199             0.0000000000
     24782       199  PMPE      H12Y           35.1361979486      -39.9777997904       -6.8890153690  MEMB      199             0.0000000000
     24783       199  PMPE      C313           35.2325579239      -41.5797840474       -5.6709482677  MEMB      199             0.0000000000
     24784       199  PMPE      H13X           36.0603240205      -42.3217194424       -5.7640649352  MEMB      199             0.0000000000
     24785       199  PMPE      H13Y           34.2909579588      -41.7948002102       -6.2337358437  MEMB      199             0.0000000000
     24786       199  PMPE      C314           34.8459891222      -41.2454945457       -4.1367112183  MEMB      199             0.0000000000
     24787       199  PMPE      H14X           34.1352694636      -40.4237751751       -4.2790755302  MEMB      199             0.0000000000
     24788       199  PMPE      H14Y           35.8567941394      -40.9307618471       -3.8084899792  MEMB      199             0.0000000000
     24789       199  PMPE      C315           34.0714566605      -42.2675496975       -3.0037465715  MEMB      199             0.0000000000
     24790       199  PMPE      H15X           33.2097485403      -42.7589117406       -3.4338825451  MEMB      199             0.0000000000
     24791       199  PMPE      H15Y           33.7806749338      -41.6297075798       -2.1542215911  MEMB      199             0.0000000000
     24792       199  PMPE      C316           34.7253003966      -43.2039521392       -1.9029309914  MEMB      199             0.0000000000
     24793       199  PMPE      H16X           34.5412757613      -44.0959639224       -1.2804585230  MEMB      199             0.0000000000
     24794       199  PMPE      H16Y           35.7114057391      -42.7623009433       -2.1233299675  MEMB      199             0.0000000000
     24795       199  PMPE      H16Z           34.8963566011      -44.2843914842       -2.0976121573  MEMB      199             0.0000000000
     24796       200  PYPG      C13           -37.7596494406      -35.1140103827      -20.9223404384  MEMB      200             0.0000000000
     24797       200  PYPG      H13A          -37.9686806225      -36.1843438897      -20.7350206129  MEMB      200             0.0000000000
     24798       200  PYPG      H13B          -38.4403338280      -34.4591679803      -20.3015156542  MEMB      200             0.0000000000
     24799       200  PYPG      OC3           -37.7274115503      -34.7056723099      -22.2695691837  MEMB      200             0.0000000000
     24800       200  PYPG      HO3           -36.8731833258      -35.0973425077      -22.4869285660  MEMB      200             0.0000000000
     24801       200  PYPG      C12           -36.4123107780      -34.9184898800      -20.3006789570  MEMB      200             0.0000000000
     24802       200  PYPG      H12A          -36.5480809945      -33.8072702846      -20.2964098166  MEMB      200             0.0000000000
     24803       200  PYPG      OC2           -35.1539163153      -34.9740206020      -20.9022727164  MEMB      200             0.0000000000
     24804       200  PYPG      HO2           -34.6821698025      -34.6815974719      -20.0825693711  MEMB      200             0.0000000000
     24805       200  PYPG      C11           -36.3449281437      -35.6756340481      -18.9739994784  MEMB      200             0.0000000000
     24806       200  PYPG      H11A          -37.4120640081      -35.5571989730      -18.6679928033  MEMB      200             0.0000000000
     24807       200  PYPG      H11B          -35.6125244112      -35.2537831275      -18.2431218925  MEMB      200             0.0000000000
     24808       200  PYPG      P             -36.1828514339      -37.9542240330      -17.6674442798  MEMB      200             0.0000000000
     24809       200  PYPG      O13           -35.2672770287      -37.4841954263      -16.6048950273  MEMB      200             0.0000000000
     24810       200  PYPG      O14           -36.1067600785      -39.3294588349      -18.1880717826  MEMB      200             0.0000000000
     24811       200  PYPG      O11           -37.6587609584      -37.6723185241      -17.0935935632  MEMB      200             0.0000000000
     24812       200  PYPG      O12           -36.0818701134      -37.0324768949      -18.9628134360  MEMB      200             0.0000000000
     24813       200  PYPG      C1            -38.8472771456      -37.7270910473      -17.8643200427  MEMB      200             0.0000000000
     24814       200  PYPG      HA            -39.0412105595      -38.7888044701      -18.1391270395  MEMB      200             0.0000000000
     24815       200  PYPG      HB            -38.7234913048      -37.1695454633      -18.8143909596  MEMB      200             0.0000000000
     24816       200  PYPG      C2            -40.0959012886      -37.1560242719      -17.0850966762  MEMB      200             0.0000000000
     24817       200  PYPG      HS            -40.9619391481      -37.1735591031      -17.7895990450  MEMB      200             0.0000000000
     24818       200  PYPG      O21           -39.8886612471      -35.8509818394      -16.4948853541  MEMB      200             0.0000000000
     24819       200  PYPG      C21           -40.6111304332      -34.8380909719      -17.0082507008  MEMB      200             0.0000000000
     24820       200  PYPG      O22           -41.4243155153      -34.9395538408      -17.9002943618  MEMB      200             0.0000000000
     24821       200  PYPG      C22           -40.2567646730      -33.4862863044      -16.4069924565  MEMB      200             0.0000000000
     24822       200  PYPG      H2R           -40.6478018395      -32.6072136400      -16.9026852992  MEMB      200             0.0000000000
     24823       200  PYPG      H2S           -39.2617351252      -33.2091166318      -16.7662692330  MEMB      200             0.0000000000
     24824       200  PYPG      C3            -40.5029587292      -38.0895943171      -15.9350903923  MEMB      200             0.0000000000
     24825       200  PYPG      HX            -40.8252518638      -39.0077863261      -16.4545129036  MEMB      200             0.0000000000
     24826       200  PYPG      HY            -41.3581461702      -37.6313234437      -15.3819121290  MEMB      200             0.0000000000
     24827       200  PYPG      O31           -39.4130925941      -38.4465822704      -15.0910063084  MEMB      200             0.0000000000
     24828       200  PYPG      C31           -39.5389671684      -38.3356225085      -13.7987735702  MEMB      200             0.0000000000
     24829       200  PYPG      O32           -40.4673730350      -37.8360836164      -13.1904986838  MEMB      200             0.0000000000
     24830       200  PYPG      C32           -38.3623361220      -39.0665849578      -13.1678064329  MEMB      200             0.0000000000
     24831       200  PYPG      H2X           -38.8061776450      -39.7930966060      -12.4718956631  MEMB      200             0.0000000000
     24832       200  PYPG      H2Y           -37.8158841681      -39.6174959592      -13.9631367044  MEMB      200             0.0000000000
     24833       200  PYPG      C23           -40.5773371507      -33.4051231748      -14.8974839226  MEMB      200             0.0000000000
     24834       200  PYPG      H3R           -40.2753390766      -34.3459570147      -14.3763064885  MEMB      200             0.0000000000
     24835       200  PYPG      H3S           -41.6423390691      -33.5221419544      -14.7204621829  MEMB      200             0.0000000000
     24836       200  PYPG      C24           -40.0713861195      -32.0763422250      -14.2478482701  MEMB      200             0.0000000000
     24837       200  PYPG      H4R           -40.3470876968      -31.1723885104      -14.7808188950  MEMB      200             0.0000000000
     24838       200  PYPG      H4S           -39.0248834277      -31.6932879292      -14.3314544299  MEMB      200             0.0000000000
     24839       200  PYPG      C25           -40.3855721950      -31.9833779853      -12.7910610675  MEMB      200             0.0000000000
     24840       200  PYPG      H5R           -39.7410137221      -31.1276172377      -12.4819282832  MEMB      200             0.0000000000
     24841       200  PYPG      H5S           -39.9812281858      -32.3785220722      -11.9212755300  MEMB      200             0.0000000000
     24842       200  PYPG      C26           -41.3050011890      -33.0678312213      -12.0990367175  MEMB      200             0.0000000000
     24843       200  PYPG      H6R           -41.2007343834      -34.0878553456      -12.4386454934  MEMB      200             0.0000000000
     24844       200  PYPG      H6S           -41.8695953919      -32.6345846904      -12.8875734050  MEMB      200             0.0000000000
     24845       200  PYPG      C27           -41.7627887686      -33.1699868446      -10.5382478485  MEMB      200             0.0000000000
     24846       200  PYPG      H7R           -42.6154766871      -33.8099715044      -10.4695515252  MEMB      200             0.0000000000
     24847       200  PYPG      H7S           -42.3466810527      -32.3361901129      -10.1096788067  MEMB      200             0.0000000000
     24848       200  PYPG      C28           -40.7524002957      -33.2826563639       -9.3432218729  MEMB      200             0.0000000000
     24849       200  PYPG      H8R           -41.0601382868      -32.7415873359       -8.4112063432  MEMB      200             0.0000000000
     24850       200  PYPG      H8S           -39.7759738120      -32.8355613906       -9.3085538025  MEMB      200             0.0000000000
     24851       200  PYPG      C29           -40.2246005310      -34.5992031350       -9.4369557307  MEMB      200             0.0000000000
     24852       200  PYPG      H9R           -39.8591291799      -34.8800149673      -10.4372557212  MEMB      200             0.0000000000
     24853       200  PYPG      C210          -40.2075914792      -35.3210060005       -8.3551970046  MEMB      200             0.0000000000
     24854       200  PYPG      H10R          -39.7846468168      -36.3156904959       -8.4289601076  MEMB      200             0.0000000000
     24855       200  PYPG      C211          -40.7067449061      -34.8544147046       -7.0141880233  MEMB      200             0.0000000000
     24856       200  PYPG      H11R          -40.5836314051      -35.7592903624       -6.3846289970  MEMB      200             0.0000000000
     24857       200  PYPG      H11S          -41.7821963402      -34.5915919381       -7.0878991073  MEMB      200             0.0000000000
     24858       200  PYPG      C212          -40.1348412518      -33.6751544528       -6.1953862111  MEMB      200             0.0000000000
     24859       200  PYPG      H12R          -40.3763219782      -32.6454586145       -6.4916510095  MEMB      200             0.0000000000
     24860       200  PYPG      H12S          -39.1365530857      -33.4848943085       -6.3166921277  MEMB      200             0.0000000000
     24861       200  PYPG      C213          -40.0701992758      -34.0313743822       -4.7386074866  MEMB      200             0.0000000000
     24862       200  PYPG      H13R          -39.6165157885      -33.1904141414       -4.1654473576  MEMB      200             0.0000000000
     24863       200  PYPG      H13S          -39.5051231582      -34.9581345778       -4.4964195375  MEMB      200             0.0000000000
     24864       200  PYPG      C214          -41.4830857507      -34.0877848113       -4.3349944330  MEMB      200             0.0000000000
     24865       200  PYPG      H14R          -41.7233199053      -33.0624093426       -4.7291815311  MEMB      200             0.0000000000
     24866       200  PYPG      H14S          -42.1681003694      -34.7907390352       -4.7900108158  MEMB      200             0.0000000000
     24867       200  PYPG      C215          -41.5309633257      -34.2726239216       -2.8642598100  MEMB      200             0.0000000000
     24868       200  PYPG      H15R          -42.4630544705      -33.9545967453       -2.3554680324  MEMB      200             0.0000000000
     24869       200  PYPG      H15S          -40.8145166875      -33.4901974393       -2.7741253574  MEMB      200             0.0000000000
     24870       200  PYPG      C216          -40.5699056405      -35.0850705230       -2.0688408225  MEMB      200             0.0000000000
     24871       200  PYPG      H16R          -39.5079209026      -34.8413208588       -2.1675117650  MEMB      200             0.0000000000
     24872       200  PYPG      H16S          -40.8215067770      -36.1329578043       -2.3135229325  MEMB      200             0.0000000000
     24873       200  PYPG      H16T          -40.7208252447      -34.7652784031       -1.0114469357  MEMB      200             0.0000000000
     24874       200  PYPG      C33           -37.4010513465      -38.1061221968      -12.4539478849  MEMB      200             0.0000000000
     24875       200  PYPG      H3X           -36.6596595628      -38.6532217660      -11.8452693305  MEMB      200             0.0000000000
     24876       200  PYPG      H3Y           -37.9953703261      -37.4386239216      -11.7842986688  MEMB      200             0.0000000000
     24877       200  PYPG      C34           -36.5764866685      -37.3573536923      -13.4951677943  MEMB      200             0.0000000000
     24878       200  PYPG      H4X           -37.3820510125      -36.9062571751      -14.0903325154  MEMB      200             0.0000000000
     24879       200  PYPG      H4Y           -36.0264891734      -37.9750378823      -14.2189619360  MEMB      200             0.0000000000
     24880       200  PYPG      C35           -35.4669404825      -36.4391924843      -12.9538763383  MEMB      200             0.0000000000
     24881       200  PYPG      H5X           -34.8667981413      -35.9748622842      -13.8099783341  MEMB      200             0.0000000000
     24882       200  PYPG      H5Y           -34.8744843628      -36.8513293392      -12.1420622554  MEMB      200             0.0000000000
     24883       200  PYPG      C36           -36.1060078473      -35.4205404866      -12.1351749062  MEMB      200             0.0000000000
     24884       200  PYPG      H6X           -37.0369769868      -35.6301493524      -11.5699034678  MEMB      200             0.0000000000
     24885       200  PYPG      H6Y           -36.3202006203      -35.2024278513      -13.1639498687  MEMB      200             0.0000000000
     24886       200  PYPG      C37           -35.5942489144      -34.0921624679      -11.7992100916  MEMB      200             0.0000000000
     24887       200  PYPG      H7X           -34.6866627599      -33.6666231914      -12.0694552641  MEMB      200             0.0000000000
     24888       200  PYPG      H7Y           -35.9136902448      -33.3125339668      -12.4338024441  MEMB      200             0.0000000000
     24889       200  PYPG      C38           -35.5140049721      -33.9012249786      -10.3474035381  MEMB      200             0.0000000000
     24890       200  PYPG      H8X           -34.9505549165      -33.0498530088      -10.2982047350  MEMB      200             0.0000000000
     24891       200  PYPG      H8Y           -34.9204198855      -34.8212227474      -10.4815669103  MEMB      200             0.0000000000
     24892       200  PYPG      C39           -36.3091834627      -33.3881149660       -9.0025402475  MEMB      200             0.0000000000
     24893       200  PYPG      H9X           -37.1836958886      -34.0238426019       -9.0222513741  MEMB      200             0.0000000000
     24894       200  PYPG      H9Y           -37.1184827776      -32.6588109916       -8.9901847420  MEMB      200             0.0000000000
     24895       200  PYPG      C310          -35.6443745493      -32.7664438620       -7.6196810234  MEMB      200             0.0000000000
     24896       200  PYPG      H10X          -36.5291611287      -32.2510143960       -7.1831174390  MEMB      200             0.0000000000
     24897       200  PYPG      H10Y          -35.1690908944      -31.8150084676       -7.8619435387  MEMB      200             0.0000000000
     24898       200  PYPG      C311          -34.7535747582      -33.8262634610       -6.6357767496  MEMB      200             0.0000000000
     24899       200  PYPG      H11X          -33.8205124861      -34.3669568661       -6.7753414706  MEMB      200             0.0000000000
     24900       200  PYPG      H11Y          -34.8515082111      -34.8309193962       -6.6064476915  MEMB      200             0.0000000000
     24901       200  PYPG      C312          -34.3169025209      -34.0049295505       -5.3894330422  MEMB      200             0.0000000000
     24902       200  PYPG      H12X          -35.1246581223      -34.6292497538       -5.0146980166  MEMB      200             0.0000000000
     24903       200  PYPG      H12Y          -33.7029417326      -34.9076132437       -5.1069082448  MEMB      200             0.0000000000
     24904       200  PYPG      C313          -34.0274374544      -32.6180202400       -5.3285738215  MEMB      200             0.0000000000
     24905       200  PYPG      H13X          -33.0444119046      -32.2861345544       -5.7446743006  MEMB      200             0.0000000000
     24906       200  PYPG      H13Y          -34.7820320166      -31.8257579294       -5.5613053534  MEMB      200             0.0000000000
     24907       200  PYPG      C314          -34.1017242442      -32.9447771295       -3.9707321321  MEMB      200             0.0000000000
     24908       200  PYPG      H14X          -33.1448977030      -33.3620863259       -3.7152989900  MEMB      200             0.0000000000
     24909       200  PYPG      H14Y          -33.7339784458      -31.9262542393       -3.6733260400  MEMB      200             0.0000000000
     24910       200  PYPG      C315          -35.4140068732      -33.8634923044       -3.1124209772  MEMB      200             0.0000000000
     24911       200  PYPG      H15X          -36.4987955286      -33.3136999438       -3.0777586855  MEMB      200             0.0000000000
     24912       200  PYPG      H15Y          -35.9059552976      -34.5913294831       -3.5026311140  MEMB      200             0.0000000000
     24913       200  PYPG      C316          -35.4070925256      -33.3925286289       -0.1789397374  MEMB      200             0.0000000000
     24914       200  PYPG      H16X          -34.6900735486      -32.7592433521        0.0976347847  MEMB      200             0.0000000000
     24915       200  PYPG      H16Y          -34.8730923890      -34.1452048262       -0.4326354790  MEMB      200             0.0000000000
     24916       200  PYPG      H16Z          -36.3886734392      -32.6317301412       -0.3929911720  MEMB      200             0.0000000000
     24917       201  TIP3      OH2           -27.9662166490      -29.9343070867       26.8024614106  TIP3      1               0.0000000000
     24918       201  TIP3      H1            -27.9697467945      -28.9590685063       26.7275056880  TIP3      1               0.0000000000
     24919       201  TIP3      H2            -28.6778895096      -30.1744974983       26.1944936135  TIP3      1               0.0000000000
     24920       202  TIP3      OH2           -29.1064881111      -30.6910145393       30.2575858178  TIP3      2               0.0000000000
     24921       202  TIP3      H1            -29.1249821026      -31.3332930873       30.9849599763  TIP3      2               0.0000000000
     24922       202  TIP3      H2            -29.4651656396      -31.2016594067       29.5158106283  TIP3      2               0.0000000000
     24923       203  TIP3      OH2           -36.6618452458      -31.0607829112       31.7880291119  TIP3      3               0.0000000000
     24924       203  TIP3      H1            -36.6714408080      -31.7021120844       32.5282251003  TIP3      3               0.0000000000
     24925       203  TIP3      H2            -35.9973226547      -30.4279519257       32.0883259405  TIP3      3               0.0000000000
     24926       204  TIP3      OH2           -25.3836204821      -27.7303279539       28.5750787710  TIP3      4               0.0000000000
     24927       204  TIP3      H1            -25.8445812500      -28.4604183002       29.0079186608  TIP3      4               0.0000000000
     24928       204  TIP3      H2            -25.4505790439      -27.0410617830       29.2517471316  TIP3      4               0.0000000000
     24929       205  TIP3      OH2           -35.8381563281      -26.5752617435       30.3305314334  TIP3      5               0.0000000000
     24930       205  TIP3      H1            -36.1300183440      -27.4422213163       29.9960591443  TIP3      5               0.0000000000
     24931       205  TIP3      H2            -34.8802022830      -26.7428851254       30.3739733053  TIP3      5               0.0000000000
     24932       206  TIP3      OH2           -39.1144142265      -32.9358496049       25.6745002220  TIP3      6               0.0000000000
     24933       206  TIP3      H1            -39.6271443159      -32.1210483002       25.7515510781  TIP3      6               0.0000000000
     24934       206  TIP3      H2            -39.7983639159      -33.5625759710       25.3869789607  TIP3      6               0.0000000000
     24935       207  TIP3      OH2           -38.4092211077      -30.7349557830       28.0250446059  TIP3      7               0.0000000000
     24936       207  TIP3      H1            -38.2322430393      -31.6091802943       28.4169295842  TIP3      7               0.0000000000
     24937       207  TIP3      H2            -37.7617333922      -30.6756129482       27.3049138206  TIP3      7               0.0000000000
     24938       208  TIP3      OH2           -28.2754025687      -22.5766381561       28.7998828082  TIP3      8               0.0000000000
     24939       208  TIP3      H1            -27.6582356224      -23.2811111335       28.4963623164  TIP3      8               0.0000000000
     24940       208  TIP3      H2            -28.5361353877      -22.9200346570       29.6553982363  TIP3      8               0.0000000000
     24941       209  TIP3      OH2           -30.7319222171      -28.2923354206       30.7449452326  TIP3      9               0.0000000000
     24942       209  TIP3      H1            -30.3960361126      -28.9174152877       30.0850551972  TIP3      9               0.0000000000
     24943       209  TIP3      H2            -29.9208615249      -28.1336347440       31.2583269687  TIP3      9               0.0000000000
     24944       210  TIP3      OH2           -22.1130793676      -36.6512925060       31.4757578811  TIP3      10              0.0000000000
     24945       210  TIP3      H1            -21.9520872015      -36.0400587974       32.2335418346  TIP3      10              0.0000000000
     24946       210  TIP3      H2            -21.5873609777      -36.2120525776       30.7903451209  TIP3      10              0.0000000000
     24947       211  TIP3      OH2           -27.5638319265      -33.8344650871       31.0672976217  TIP3      11              0.0000000000
     24948       211  TIP3      H1            -27.3978017144      -34.7984986367       31.0602587896  TIP3      11              0.0000000000
     24949       211  TIP3      H2            -27.6682945155      -33.6774541657       30.1076935141  TIP3      11              0.0000000000
     24950       212  TIP3      OH2           -34.4835760777      -35.7147871468       28.2726475227  TIP3      12              0.0000000000
     24951       212  TIP3      H1            -34.3314014788      -34.8854434349       27.7715522525  TIP3      12              0.0000000000
     24952       212  TIP3      H2            -34.8223370923      -36.3030481743       27.5661541177  TIP3      12              0.0000000000
     24953       213  TIP3      OH2           -26.6975327445      -35.6774284513       26.6195379745  TIP3      13              0.0000000000
     24954       213  TIP3      H1            -26.0560018344      -35.9492866767       27.3165328794  TIP3      13              0.0000000000
     24955       213  TIP3      H2            -26.1684004283      -35.0701008516       26.0838029877  TIP3      13              0.0000000000
     24956       214  TIP3      OH2           -37.7982336271      -33.3475130094       28.9912534134  TIP3      14              0.0000000000
     24957       214  TIP3      H1            -37.1178047403      -33.8795048572       29.4410795139  TIP3      14              0.0000000000
     24958       214  TIP3      H2            -37.7100087272      -33.6573221648       28.0769101560  TIP3      14              0.0000000000
     24959       215  TIP3      OH2           -32.6705226725      -31.7722919752       28.3375274233  TIP3      15              0.0000000000
     24960       215  TIP3      H1            -31.9929024176      -32.3509639481       28.7242335416  TIP3      15              0.0000000000
     24961       215  TIP3      H2            -33.1810510516      -32.4319753721       27.8253968931  TIP3      15              0.0000000000
     24962       216  TIP3      OH2           -21.6864279926      -35.2406983161       33.7360256877  TIP3      16              0.0000000000
     24963       216  TIP3      H1            -22.3201935255      -34.4977673197       33.6081261475  TIP3      16              0.0000000000
     24964       216  TIP3      H2            -21.6558486161      -35.2974223443       34.7006510493  TIP3      16              0.0000000000
     24965       217  TIP3      OH2           -35.5384702423      -36.8223177933       32.3164012871  TIP3      17              0.0000000000
     24966       217  TIP3      H1            -35.8258093313      -36.2835448094       31.5528969210  TIP3      17              0.0000000000
     24967       217  TIP3      H2            -36.2356466575      -36.5955194758       32.9837504221  TIP3      17              0.0000000000
     24968       218  TIP3      OH2           -28.2697982932      -27.3528027278       25.8699954008  TIP3      18              0.0000000000
     24969       218  TIP3      H1            -28.5221935743      -27.5963970488       24.9731270643  TIP3      18              0.0000000000
     24970       218  TIP3      H2            -28.5574300666      -26.4098209154       25.9119301335  TIP3      18              0.0000000000
     24971       219  TIP3      OH2           -33.0342491380      -29.1944259448       32.5487546825  TIP3      19              0.0000000000
     24972       219  TIP3      H1            -33.7454818055      -28.5584232722       32.7778210680  TIP3      19              0.0000000000
     24973       219  TIP3      H2            -32.3290772436      -28.5909673982       32.2615319735  TIP3      19              0.0000000000
     24974       220  TIP3      OH2           -24.9161263140      -36.2662131693       28.6345271150  TIP3      20              0.0000000000
     24975       220  TIP3      H1            -25.0886566840      -37.0720016272       29.1534101352  TIP3      20              0.0000000000
     24976       220  TIP3      H2            -24.2326272152      -35.8623681040       29.1915257152  TIP3      20              0.0000000000
     24977       221  TIP3      OH2           -35.9947275956      -34.9707669345       30.3526563181  TIP3      21              0.0000000000
     24978       221  TIP3      H1            -35.3748137927      -34.2847315948       30.6819768466  TIP3      21              0.0000000000
     24979       221  TIP3      H2            -35.4599729867      -35.3691810251       29.6141589924  TIP3      21              0.0000000000
     24980       222  TIP3      OH2           -34.5758777831      -27.1785074910       33.3612745492  TIP3      22              0.0000000000
     24981       222  TIP3      H1            -34.6221545168      -26.2628953846       33.0358958296  TIP3      22              0.0000000000
     24982       222  TIP3      H2            -35.4625359946      -27.2702534809       33.7879295939  TIP3      22              0.0000000000
     24983       223  TIP3      OH2           -38.3997630124      -27.5042605768       24.0967037123  TIP3      23              0.0000000000
     24984       223  TIP3      H1            -38.8432521645      -27.2439917733       23.2823576628  TIP3      23              0.0000000000
     24985       223  TIP3      H2            -38.4675963561      -26.7231793763       24.6759924461  TIP3      23              0.0000000000
     24986       224  TIP3      OH2           -24.9099496574      -25.8669419491       30.8773958330  TIP3      24              0.0000000000
     24987       224  TIP3      H1            -25.8879026859      -25.8772928175       31.0605926010  TIP3      24              0.0000000000
     24988       224  TIP3      H2            -24.8210123215      -24.9084137341       30.8565826667  TIP3      24              0.0000000000
     24989       225  TIP3      OH2           -24.5234527029      -37.6205014990       32.4062592764  TIP3      25              0.0000000000
     24990       225  TIP3      H1            -25.2884041748      -37.0588018404       32.2087906279  TIP3      25              0.0000000000
     24991       225  TIP3      H2            -23.8625429306      -37.2346829185       31.7921900784  TIP3      25              0.0000000000
     24992       226  TIP3      OH2           -31.5744113939      -39.4785895896       29.8949916543  TIP3      26              0.0000000000
     24993       226  TIP3      H1            -31.7049562496      -40.4358731020       29.8821659044  TIP3      26              0.0000000000
     24994       226  TIP3      H2            -32.4683562422      -39.1483503907       30.0994901656  TIP3      26              0.0000000000
     24995       227  TIP3      OH2           -26.5668561869      -24.1371878925       27.5731007013  TIP3      27              0.0000000000
     24996       227  TIP3      H1            -26.2315354165      -24.8418061047       26.9804389101  TIP3      27              0.0000000000
     24997       227  TIP3      H2            -26.2285851686      -23.3353893484       27.1103602322  TIP3      27              0.0000000000
     24998       228  TIP3      OH2           -25.3865017642      -26.1821414952       26.0405346769  TIP3      28              0.0000000000
     24999       228  TIP3      H1            -25.7205821264      -26.8496141998       25.4081541805  TIP3      28              0.0000000000
     25000       228  TIP3      H2            -25.4006488375      -26.7051843582       26.8598315044  TIP3      28              0.0000000000
     25001       229  TIP3      OH2           -23.8153584684      -27.5876264923       34.5156124265  TIP3      29              0.0000000000
     25002       229  TIP3      H1            -23.6542900629      -28.2619285237       33.8161964647  TIP3      29              0.0000000000
     25003       229  TIP3      H2            -23.5914840379      -26.7528736524       34.0814661019  TIP3      29              0.0000000000
     25004       230  TIP3      OH2           -29.2912649097      -30.7351579225       24.2489090411  TIP3      30              0.0000000000
     25005       230  TIP3      H1            -30.0049108429      -30.1326902234       23.9699957534  TIP3      30              0.0000000000
     25006       230  TIP3      H2            -28.5853700942      -30.5623004537       23.6252951306  TIP3      30              0.0000000000
     25007       231  TIP3      OH2           -21.9124916228      -31.2833539816       32.5697447154  TIP3      31              0.0000000000
     25008       231  TIP3      H1            -22.5698997190      -30.5620101869       32.6056307784  TIP3      31              0.0000000000
     25009       231  TIP3      H2            -21.4212931269      -31.0520743441       31.7597562246  TIP3      31              0.0000000000
     25010       232  TIP3      OH2           -25.8841677354      -30.5090746926       25.2010812954  TIP3      32              0.0000000000
     25011       232  TIP3      H1            -26.5933745459      -30.2547226283       25.8333965496  TIP3      32              0.0000000000
     25012       232  TIP3      H2            -25.3756282734      -31.1561022620       25.7214842879  TIP3      32              0.0000000000
     25013       233  TIP3      OH2           -25.9291646590      -32.3341217431       34.3337510421  TIP3      33              0.0000000000
     25014       233  TIP3      H1            -25.9220511617      -31.5128406897       34.8535014833  TIP3      33              0.0000000000
     25015       233  TIP3      H2            -26.5579223079      -32.0419828872       33.6410859303  TIP3      33              0.0000000000
     25016       234  TIP3      OH2           -34.2344195559      -29.8289254656       27.1396459002  TIP3      34              0.0000000000
     25017       234  TIP3      H1            -34.5801238257      -30.2317703726       26.3012823044  TIP3      34              0.0000000000
     25018       234  TIP3      H2            -33.6230647552      -30.5293150650       27.4608290826  TIP3      34              0.0000000000
     25019       235  TIP3      OH2           -32.9346782799      -26.4603581465       29.8030487659  TIP3      35              0.0000000000
     25020       235  TIP3      H1            -32.9345060850      -26.9737086686       28.9855988831  TIP3      35              0.0000000000
     25021       235  TIP3      H2            -32.1463018484      -26.8123529476       30.2552689545  TIP3      35              0.0000000000
     25022       236  TIP3      OH2           -33.9108859893      -31.1020960885       30.7777032414  TIP3      36              0.0000000000
     25023       236  TIP3      H1            -33.3633789327      -30.9902091741       29.9785967691  TIP3      36              0.0000000000
     25024       236  TIP3      H2            -33.5508488503      -30.4270940576       31.3944642029  TIP3      36              0.0000000000
     25025       237  TIP3      OH2           -27.4773376783      -25.5145750779       31.5043286527  TIP3      37              0.0000000000
     25026       237  TIP3      H1            -27.8112928939      -24.8845693482       32.1518572396  TIP3      37              0.0000000000
     25027       237  TIP3      H2            -27.7623058258      -26.3691022531       31.9113850422  TIP3      37              0.0000000000
     25028       238  TIP3      OH2           -32.9674871326      -26.6591507753       35.4785195587  TIP3      38              0.0000000000
     25029       238  TIP3      H1            -33.3789075629      -25.9206257887       35.9691802130  TIP3      38              0.0000000000
     25030       238  TIP3      H2            -33.6373941005      -26.8616836295       34.7832957926  TIP3      38              0.0000000000
     25031       239  TIP3      OH2           -35.9371704790      -30.4152751183       34.6178342409  TIP3      39              0.0000000000
     25032       239  TIP3      H1            -35.9617787241      -29.7985450529       35.3671483106  TIP3      39              0.0000000000
     25033       239  TIP3      H2            -36.9040701281      -30.4846419322       34.4401387282  TIP3      39              0.0000000000
     25034       240  TIP3      OH2           -29.2555330155      -24.5604868784       26.3375329933  TIP3      40              0.0000000000
     25035       240  TIP3      H1            -28.8346254965      -24.2544041384       27.1467127160  TIP3      40              0.0000000000
     25036       240  TIP3      H2            -29.8359661162      -23.8264244498       26.1051549622  TIP3      40              0.0000000000
     25037       241  TIP3      OH2           -34.7179392752      -24.6396436397       36.2301110634  TIP3      41              0.0000000000
     25038       241  TIP3      H1            -34.7762882671      -24.7235882922       35.2611176290  TIP3      41              0.0000000000
     25039       241  TIP3      H2            -35.6485115568      -24.7479442536       36.4938293068  TIP3      41              0.0000000000
     25040       242  TIP3      OH2           -23.2388467189      -39.5426610664       22.8099374923  TIP3      42              0.0000000000
     25041       242  TIP3      H1            -24.1824677466      -39.4725217738       23.0376157297  TIP3      42              0.0000000000
     25042       242  TIP3      H2            -23.0742596186      -38.7320876236       22.3090597749  TIP3      42              0.0000000000
     25043       243  TIP3      OH2           -35.2707982289      -30.7847646086       24.7617633870  TIP3      43              0.0000000000
     25044       243  TIP3      H1            -35.5743937243      -30.0432286678       24.2036202059  TIP3      43              0.0000000000
     25045       243  TIP3      H2            -35.8973170675      -31.4743233253       24.5185716707  TIP3      43              0.0000000000
     25046       244  TIP3      OH2           -39.0155577838      -28.3983277117       33.5268901360  TIP3      44              0.0000000000
     25047       244  TIP3      H1            -39.6215292724      -28.3894915067       32.7680103050  TIP3      44              0.0000000000
     25048       244  TIP3      H2            -39.1442320625      -29.3004521379       33.8336327347  TIP3      44              0.0000000000
     25049       245  TIP3      OH2           -38.9489408089      -25.0289297357       30.1607090190  TIP3      45              0.0000000000
     25050       245  TIP3      H1            -38.3181822860      -25.6947028691       30.4572212301  TIP3      45              0.0000000000
     25051       245  TIP3      H2            -39.4613047797      -24.8764555772       30.9745746043  TIP3      45              0.0000000000
     25052       246  TIP3      OH2           -21.1626511826      -24.9455639646       36.1473275978  TIP3      46              0.0000000000
     25053       246  TIP3      H1            -21.3013218509      -25.9025629659       36.0799025158  TIP3      46              0.0000000000
     25054       246  TIP3      H2            -22.0530238521      -24.6948386404       36.4926060143  TIP3      46              0.0000000000
     25055       247  TIP3      OH2           -30.2318791025      -25.4078141365       34.9644347372  TIP3      47              0.0000000000
     25056       247  TIP3      H1            -30.1742811531      -24.5659421525       35.4740406411  TIP3      47              0.0000000000
     25057       247  TIP3      H2            -31.1039751101      -25.7674796073       35.2169809549  TIP3      47              0.0000000000
     25058       248  TIP3      OH2           -29.7944947054      -21.6587922082       24.7696807014  TIP3      48              0.0000000000
     25059       248  TIP3      H1            -29.8951092082      -21.7227441775       23.8097827026  TIP3      48              0.0000000000
     25060       248  TIP3      H2            -29.7843485736      -20.7020268356       24.9468683980  TIP3      48              0.0000000000
     25061       249  TIP3      OH2           -36.1679755248      -22.7710831321       26.5815730350  TIP3      49              0.0000000000
     25062       249  TIP3      H1            -35.9896162963      -23.2035133996       27.4452961448  TIP3      49              0.0000000000
     25063       249  TIP3      H2            -36.9951002205      -23.2067525251       26.3390081498  TIP3      49              0.0000000000
     25064       250  TIP3      OH2           -27.0577087307      -22.4449582852       24.5875827397  TIP3      50              0.0000000000
     25065       250  TIP3      H1            -28.0239859273      -22.4621285751       24.6961332860  TIP3      50              0.0000000000
     25066       250  TIP3      H2            -26.7918153354      -23.2525076051       25.0583747223  TIP3      50              0.0000000000
     25067       251  TIP3      OH2           -24.0474537295      -33.4631636206       36.5790399362  TIP3      51              0.0000000000
     25068       251  TIP3      H1            -24.5196485296      -33.0166894842       35.8568809952  TIP3      51              0.0000000000
     25069       251  TIP3      H2            -24.0581043400      -34.3874451041       36.2775405987  TIP3      51              0.0000000000
     25070       252  TIP3      OH2           -36.9243407980      -27.0340592432       34.5738568644  TIP3      52              0.0000000000
     25071       252  TIP3      H1            -36.7298051138      -27.4309706699       35.4469929007  TIP3      52              0.0000000000
     25072       252  TIP3      H2            -37.7870067890      -27.4510503121       34.3448139953  TIP3      52              0.0000000000
     25073       253  TIP3      OH2           -34.1931312957      -38.6012854975       30.5961209144  TIP3      53              0.0000000000
     25074       253  TIP3      H1            -35.0733979927      -38.6911958800       30.1616148224  TIP3      53              0.0000000000
     25075       253  TIP3      H2            -34.3466694808      -37.7573899162       31.0391669262  TIP3      53              0.0000000000
     25076       254  TIP3      OH2           -29.6511114480      -38.6394675773       34.1517716131  TIP3      54              0.0000000000
     25077       254  TIP3      H1            -29.1753896021      -39.3372308197       34.6220352304  TIP3      54              0.0000000000
     25078       254  TIP3      H2            -30.5530641489      -39.0225908088       34.0363066686  TIP3      54              0.0000000000
     25079       255  TIP3      OH2           -26.2967111244      -35.1099888734       34.7821959870  TIP3      55              0.0000000000
     25080       255  TIP3      H1            -26.8593954773      -35.2723931501       35.5748283555  TIP3      55              0.0000000000
     25081       255  TIP3      H2            -26.4612533469      -34.1794517053       34.5487501250  TIP3      55              0.0000000000
     25082       256  TIP3      OH2           -34.0906792527      -33.6417199159       31.7815738285  TIP3      56              0.0000000000
     25083       256  TIP3      H1            -34.8255865765      -33.6439830557       32.4255682266  TIP3      56              0.0000000000
     25084       256  TIP3      H2            -34.1680377581      -32.7292877808       31.4154685124  TIP3      56              0.0000000000
     25085       257  TIP3      OH2           -34.1574168209      -33.5202469453       26.6516854632  TIP3      57              0.0000000000
     25086       257  TIP3      H1            -35.0954115546      -33.7351663746       26.4901996541  TIP3      57              0.0000000000
     25087       257  TIP3      H2            -33.7729662402      -33.7849484677       25.7959480884  TIP3      57              0.0000000000
     25088       258  TIP3      OH2           -28.6482323393      -33.0163671699       25.3789740629  TIP3      58              0.0000000000
     25089       258  TIP3      H1            -29.0356052066      -32.1711652303       25.0673109512  TIP3      58              0.0000000000
     25090       258  TIP3      H2            -27.9296731964      -33.1861689546       24.7483961811  TIP3      58              0.0000000000
     25091       259  TIP3      OH2           -29.5825650938      -32.7823339488       36.8495224650  TIP3      59              0.0000000000
     25092       259  TIP3      H1            -30.1044816289      -33.5673594037       37.1518685947  TIP3      59              0.0000000000
     25093       259  TIP3      H2            -28.7455347525      -32.9106854080       37.3270013936  TIP3      59              0.0000000000
     25094       260  TIP3      OH2           -27.5997260846      -33.5098832089       28.2457887882  TIP3      60              0.0000000000
     25095       260  TIP3      H1            -27.8899520876      -32.9596645979       27.4996015620  TIP3      60              0.0000000000
     25096       260  TIP3      H2            -27.5095282238      -34.3738868401       27.8016447431  TIP3      60              0.0000000000
     25097       261  TIP3      OH2           -36.4470598986      -33.3907637582       33.4628477746  TIP3      61              0.0000000000
     25098       261  TIP3      H1            -36.4527074208      -32.9536709161       34.3322807628  TIP3      61              0.0000000000
     25099       261  TIP3      H2            -36.9550139276      -34.1896363704       33.6558905702  TIP3      61              0.0000000000
     25100       262  TIP3      OH2           -39.8157139204      -36.2576911911       27.3746555177  TIP3      62              0.0000000000
     25101       262  TIP3      H1            -39.1850991603      -36.3395709737       28.1098243361  TIP3      62              0.0000000000
     25102       262  TIP3      H2            -39.3828753759      -36.7189008903       26.6469750377  TIP3      62              0.0000000000
     25103       263  TIP3      OH2           -38.5638556661      -35.4744866600       22.8899420958  TIP3      63              0.0000000000
     25104       263  TIP3      H1            -38.0687083923      -34.9316095600       22.2239005832  TIP3      63              0.0000000000
     25105       263  TIP3      H2            -39.3057143929      -34.8893699156       23.0637039892  TIP3      63              0.0000000000
     25106       264  TIP3      OH2           -28.4174460522      -31.9247678874       32.8112874887  TIP3      64              0.0000000000
     25107       264  TIP3      H1            -28.0306943356      -32.6114023466       32.2295433247  TIP3      64              0.0000000000
     25108       264  TIP3      H2            -28.8764420900      -32.4554624153       33.4857727049  TIP3      64              0.0000000000
     25109       265  TIP3      OH2           -31.6135581772      -35.9449090973       27.6583972633  TIP3      65              0.0000000000
     25110       265  TIP3      H1            -32.5480456373      -35.9870178789       27.9501403024  TIP3      65              0.0000000000
     25111       265  TIP3      H2            -31.1230174202      -36.1205836343       28.4763738948  TIP3      65              0.0000000000
     25112       266  TIP3      OH2           -36.8001220379      -34.4195855517       26.5394760797  TIP3      66              0.0000000000
     25113       266  TIP3      H1            -37.6686329586      -34.2552089215       26.1333286588  TIP3      66              0.0000000000
     25114       266  TIP3      H2            -36.5126360001      -35.2394286246       26.0994863570  TIP3      66              0.0000000000
     25115       267  TIP3      OH2           -33.1589574968      -34.3478740816       24.1785604056  TIP3      67              0.0000000000
     25116       267  TIP3      H1            -32.1939987061      -34.2615177596       24.3078043089  TIP3      67              0.0000000000
     25117       267  TIP3      H2            -33.4030358497      -33.6800878927       23.5025358925  TIP3      67              0.0000000000
     25118       268  TIP3      OH2           -27.1911510484      -36.7644398303       30.8961407073  TIP3      68              0.0000000000
     25119       268  TIP3      H1            -27.8829218044      -36.6561041135       31.5890450147  TIP3      68              0.0000000000
     25120       268  TIP3      H2            -27.6964604727      -37.0171487071       30.1083046752  TIP3      68              0.0000000000
     25121       269  TIP3      OH2           -34.4049488608      -33.1634221691       21.7539773860  TIP3      69              0.0000000000
     25122       269  TIP3      H1            -34.9911652111      -33.5424188066       21.0689489770  TIP3      69              0.0000000000
     25123       269  TIP3      H2            -33.6154464480      -32.9624605591       21.2474897234  TIP3      69              0.0000000000
     25124       270  TIP3      OH2           -23.9980497373      -21.0760072140       37.2174478616  TIP3      70              0.0000000000
     25125       270  TIP3      H1            -23.7333416909      -20.6907496339       36.3624686614  TIP3      70              0.0000000000
     25126       270  TIP3      H2            -23.2735494336      -20.7568739512       37.7769627956  TIP3      70              0.0000000000
     25127       271  TIP3      OH2           -36.3074737007      -28.6057025014       36.8038073663  TIP3      71              0.0000000000
     25128       271  TIP3      H1            -35.5700786103      -28.3691297873       37.3971332866  TIP3      71              0.0000000000
     25129       271  TIP3      H2            -37.0717971261      -28.5222631179       37.4050051683  TIP3      71              0.0000000000
     25130       272  TIP3      OH2           -30.3226620148      -33.2049283257       29.5352331039  TIP3      72              0.0000000000
     25131       272  TIP3      H1            -29.7248139581      -33.7483864585       29.0052683451  TIP3      72              0.0000000000
     25132       272  TIP3      H2            -30.4710960751      -33.7444993966       30.3232403856  TIP3      72              0.0000000000
     25133       273  TIP3      OH2           -35.3204398435      -37.0721714815       25.9919555468  TIP3      73              0.0000000000
     25134       273  TIP3      H1            -35.6456571280      -37.9881487258       25.9721143678  TIP3      73              0.0000000000
     25135       273  TIP3      H2            -34.5264913157      -37.1370732598       25.4485168344  TIP3      73              0.0000000000
     25136       274  TIP3      OH2           -31.6719953415      -34.8564955325       31.9435830459  TIP3      74              0.0000000000
     25137       274  TIP3      H1            -32.5105491300      -34.3565064223       32.0507455010  TIP3      74              0.0000000000
     25138       274  TIP3      H2            -31.1255629643      -34.5299377851       32.6809282752  TIP3      74              0.0000000000
     25139       275  TIP3      OH2           -31.0934168250      -28.6966726135       23.6036348161  TIP3      75              0.0000000000
     25140       275  TIP3      H1            -31.9367148530      -29.1183448714       23.4100391714  TIP3      75              0.0000000000
     25141       275  TIP3      H2            -31.2712784222      -28.4719191341       24.5522627127  TIP3      75              0.0000000000
     25142       276  TIP3      OH2           -23.9045632704      -29.4118642433       32.4626852360  TIP3      76              0.0000000000
     25143       276  TIP3      H1            -23.3389565444      -28.9747294113       31.8097114312  TIP3      76              0.0000000000
     25144       276  TIP3      H2            -24.7686295437      -29.4182407048       31.9994015348  TIP3      76              0.0000000000
     25145       277  TIP3      OH2           -27.2653333573      -35.8533927569       21.9145938308  TIP3      77              0.0000000000
     25146       277  TIP3      H1            -28.1516990373      -35.6384152280       21.6142432518  TIP3      77              0.0000000000
     25147       277  TIP3      H2            -26.8985920210      -34.9796278477       22.1206244326  TIP3      77              0.0000000000
     25148       278  TIP3      OH2           -29.6024833571      -28.3729882058       34.9001080902  TIP3      78              0.0000000000
     25149       278  TIP3      H1            -29.9521577389      -28.8042585200       35.6867542726  TIP3      78              0.0000000000
     25150       278  TIP3      H2            -29.8604046372      -27.4525858917       35.0084272594  TIP3      78              0.0000000000
     25151       279  TIP3      OH2           -26.5589223791      -33.8366084460       23.5295221398  TIP3      79              0.0000000000
     25152       279  TIP3      H1            -25.6549343237      -34.0379279335       23.8674983948  TIP3      79              0.0000000000
     25153       279  TIP3      H2            -26.3899842030      -33.1076662016       22.9453933033  TIP3      79              0.0000000000
     25154       280  TIP3      OH2           -35.9762262531      -29.2404112708       29.4563043426  TIP3      80              0.0000000000
     25155       280  TIP3      H1            -35.3123751065      -29.3264941204       28.7433510334  TIP3      80              0.0000000000
     25156       280  TIP3      H2            -35.9205476371      -30.1088144054       29.8951356523  TIP3      80              0.0000000000
     25157       281  TIP3      OH2           -29.0030054987      -27.1904933656       22.6457206786  TIP3      81              0.0000000000
     25158       281  TIP3      H1            -29.2865413984      -26.3256355807       23.0182493027  TIP3      81              0.0000000000
     25159       281  TIP3      H2            -29.7410305996      -27.7530333816       22.9242448951  TIP3      81              0.0000000000
     25160       282  TIP3      OH2           -38.4562002380      -31.2287789595       34.6112158708  TIP3      82              0.0000000000
     25161       282  TIP3      H1            -38.6636741604      -31.3056039956       35.5651395979  TIP3      82              0.0000000000
     25162       282  TIP3      H2            -39.3888136065      -31.3169627185       34.3047917565  TIP3      82              0.0000000000
     25163       283  TIP3      OH2           -31.9821601569      -31.2823882976       36.8895300540  TIP3      83              0.0000000000
     25164       283  TIP3      H1            -32.3035970242      -31.5974022183       36.0321692221  TIP3      83              0.0000000000
     25165       283  TIP3      H2            -31.0611550032      -31.6114589762       36.8899898200  TIP3      83              0.0000000000
     25166       284  TIP3      OH2           -27.2957582947      -25.9502502756       34.8466994166  TIP3      84              0.0000000000
     25167       284  TIP3      H1            -28.2219708717      -25.7734657238       34.6150877443  TIP3      84              0.0000000000
     25168       284  TIP3      H2            -27.3296197879      -25.6580638896       35.7791444578  TIP3      84              0.0000000000
     25169       285  TIP3      OH2           -21.6451769331      -33.7872974512       23.2577240313  TIP3      85              0.0000000000
     25170       285  TIP3      H1            -22.1920521500      -34.0534278118       22.4946844060  TIP3      85              0.0000000000
     25171       285  TIP3      H2            -21.5203665319      -32.8508349819       22.9909069983  TIP3      85              0.0000000000
     25172       286  TIP3      OH2           -21.6389030791      -27.9151972055       36.0414863852  TIP3      86              0.0000000000
     25173       286  TIP3      H1            -22.5336462317      -27.6903373964       35.6810114663  TIP3      86              0.0000000000
     25174       286  TIP3      H2            -21.0991168393      -27.9606478077       35.2276765479  TIP3      86              0.0000000000
     25175       287  TIP3      OH2           -23.2875200213      -24.9578623649       23.6167294865  TIP3      87              0.0000000000
     25176       287  TIP3      H1            -23.7330231846      -25.7429185756       23.9674176532  TIP3      87              0.0000000000
     25177       287  TIP3      H2            -23.0486080987      -25.1819812181       22.7238248212  TIP3      87              0.0000000000
     25178       288  TIP3      OH2           -26.1378640936      -30.1332306855       30.7471008453  TIP3      88              0.0000000000
     25179       288  TIP3      H1            -27.0775460207      -30.3460801981       30.6267640758  TIP3      88              0.0000000000
     25180       288  TIP3      H2            -25.6999408820      -30.8847754771       30.3030528731  TIP3      88              0.0000000000
     25181       289  TIP3      OH2           -33.6255655897      -25.7949218293       26.8511376619  TIP3      89              0.0000000000
     25182       289  TIP3      H1            -33.1156748172      -24.9944659886       26.6385920734  TIP3      89              0.0000000000
     25183       289  TIP3      H2            -34.5033081418      -25.5522496572       26.5301692821  TIP3      89              0.0000000000
     25184       290  TIP3      OH2           -37.8832346340      -31.0005728967       21.5115730941  TIP3      90              0.0000000000
     25185       290  TIP3      H1            -37.2700350566      -30.2981753206       21.7580991050  TIP3      90              0.0000000000
     25186       290  TIP3      H2            -38.7519349616      -30.6160710711       21.6653636565  TIP3      90              0.0000000000
     25187       291  TIP3      OH2           -32.1931191443      -28.1366064788       26.3516357269  TIP3      91              0.0000000000
     25188       291  TIP3      H1            -32.4999636657      -27.2130342093       26.4492704582  TIP3      91              0.0000000000
     25189       291  TIP3      H2            -32.9140358401      -28.6208728790       26.8016071443  TIP3      91              0.0000000000
     25190       292  TIP3      OH2           -31.7530577736      -23.9428266760       32.7738794126  TIP3      92              0.0000000000
     25191       292  TIP3      H1            -31.2941402960      -23.1413295282       32.4802761131  TIP3      92              0.0000000000
     25192       292  TIP3      H2            -31.1353911389      -24.2867507164       33.4430171466  TIP3      92              0.0000000000
     25193       293  TIP3      OH2           -33.5172363997      -23.1564363927       25.9347920773  TIP3      93              0.0000000000
     25194       293  TIP3      H1            -34.4765596628      -23.0032439719       26.0432919604  TIP3      93              0.0000000000
     25195       293  TIP3      H2            -33.1527377055      -22.3014866795       26.2221813064  TIP3      93              0.0000000000
     25196       294  TIP3      OH2           -28.2295629563      -27.9510505948       32.3839247490  TIP3      94              0.0000000000
     25197       294  TIP3      H1            -28.5473301029      -28.1415440476       33.2915659495  TIP3      94              0.0000000000
     25198       294  TIP3      H2            -27.5851715120      -28.6583266557       32.2178541330  TIP3      94              0.0000000000
     25199       295  TIP3      OH2           -25.3915603377      -23.3821385062       34.8583628644  TIP3      95              0.0000000000
     25200       295  TIP3      H1            -26.1146914497      -23.8547680502       34.4079031644  TIP3      95              0.0000000000
     25201       295  TIP3      H2            -25.2367702764      -22.6541352946       34.2232494709  TIP3      95              0.0000000000
     25202       296  TIP3      OH2           -21.3514813453      -22.4769669685       21.7943680766  TIP3      96              0.0000000000
     25203       296  TIP3      H1            -20.7246516705      -21.8255505959       21.5116914615  TIP3      96              0.0000000000
     25204       296  TIP3      H2            -22.1373433891      -21.9150985913       22.0078950508  TIP3      96              0.0000000000
     25205       297  TIP3      OH2           -37.3576834742      -36.1223166749       34.2379386784  TIP3      97              0.0000000000
     25206       297  TIP3      H1            -38.2521483719      -35.7663484972       34.2771916625  TIP3      97              0.0000000000
     25207       297  TIP3      H2            -37.4635524131      -36.9593928704       34.7230635723  TIP3      97              0.0000000000
     25208       298  TIP3      OH2           -25.1036088684      -28.2996050554       23.7200692639  TIP3      98              0.0000000000
     25209       298  TIP3      H1            -25.3386171616      -29.0567820888       24.2874602720  TIP3      98              0.0000000000
     25210       298  TIP3      H2            -24.1540719763      -28.2042452810       23.9012316339  TIP3      98              0.0000000000
     25211       299  TIP3      OH2           -37.7418257042      -24.3316787502       32.6927291057  TIP3      99              0.0000000000
     25212       299  TIP3      H1            -37.4225749091      -25.2422755208       32.6918955684  TIP3      99              0.0000000000
     25213       299  TIP3      H2            -37.4867179007      -24.0397739464       33.5704010767  TIP3      99              0.0000000000
     25214       300  TIP3      OH2           -36.4555075093      -29.0173384405       22.9285229798  TIP3      100             0.0000000000
     25215       300  TIP3      H1            -37.1876671050      -28.6435020763       23.4699854300  TIP3      100             0.0000000000
     25216       300  TIP3      H2            -35.9465820717      -28.2540510120       22.6629479506  TIP3      100             0.0000000000
     25217       301  TIP3      OH2           -28.6053396894      -36.3368465478       33.2336680940  TIP3      101             0.0000000000
     25218       301  TIP3      H1            -27.8836522610      -36.3159375351       33.8754257803  TIP3      101             0.0000000000
     25219       301  TIP3      H2            -29.0179197687      -37.2129059222       33.4200306466  TIP3      101             0.0000000000
     25220       302  TIP3      OH2           -27.8156042535      -36.7897646429       24.3451485054  TIP3      102             0.0000000000
     25221       302  TIP3      H1            -27.6191434171      -36.3033384987       23.5148486259  TIP3      102             0.0000000000
     25222       302  TIP3      H2            -27.2940347045      -36.2830674296       24.9868701431  TIP3      102             0.0000000000
     25223       303  TIP3      OH2           -30.1976230736      -24.6397650914       23.0456707372  TIP3      103             0.0000000000
     25224       303  TIP3      H1            -30.9992465548      -24.1000051451       23.2094427583  TIP3      103             0.0000000000
     25225       303  TIP3      H2            -29.6160503410      -24.0524428546       22.5504828389  TIP3      103             0.0000000000
     25226       304  TIP3      OH2           -30.6281438262      -35.0269652551       25.0943283858  TIP3      104             0.0000000000
     25227       304  TIP3      H1            -29.8501513674      -34.4479696081       25.1726349684  TIP3      104             0.0000000000
     25228       304  TIP3      H2            -30.9190869188      -35.1532929915       26.0177406351  TIP3      104             0.0000000000
     25229       305  TIP3      OH2           -30.0789298062      -33.9956817336       34.3257676782  TIP3      105             0.0000000000
     25230       305  TIP3      H1            -30.0006613579      -33.4498801375       35.1334560125  TIP3      105             0.0000000000
     25231       305  TIP3      H2            -29.4305439904      -34.7069216384       34.4193436450  TIP3      105             0.0000000000
     25232       306  TIP3      OH2           -29.7923546000      -37.9921258911       26.0629556910  TIP3      106             0.0000000000
     25233       306  TIP3      H1            -30.1454237476      -37.3076420852       26.6508810151  TIP3      106             0.0000000000
     25234       306  TIP3      H2            -29.1338751635      -37.4480361066       25.5735921269  TIP3      106             0.0000000000
     25235       307  TIP3      OH2           -32.7989870675      -23.5686580659       23.1487862005  TIP3      107             0.0000000000
     25236       307  TIP3      H1            -32.6571959041      -22.7458697116       22.6294670187  TIP3      107             0.0000000000
     25237       307  TIP3      H2            -33.0814383453      -23.2224542343       24.0142575463  TIP3      107             0.0000000000
     25238       308  TIP3      OH2           -34.1189135099      -36.7635619711       22.7568442000  TIP3      108             0.0000000000
     25239       308  TIP3      H1            -34.2152782756      -35.8685025801       23.1229795082  TIP3      108             0.0000000000
     25240       308  TIP3      H2            -33.2672077861      -37.0213628838       23.0911672298  TIP3      108             0.0000000000
     25241       309  TIP3      OH2           -23.9043627668      -36.1125676101       35.1489272967  TIP3      109             0.0000000000
     25242       309  TIP3      H1            -24.8434066530      -35.8254593022       35.0378277419  TIP3      109             0.0000000000
     25243       309  TIP3      H2            -23.6175862543      -36.1316091114       34.2211018798  TIP3      109             0.0000000000
     25244       310  TIP3      OH2           -25.2952400853      -32.3373179567       29.2009101231  TIP3      110             0.0000000000
     25245       310  TIP3      H1            -26.1151411287      -32.7796279745       28.8975916505  TIP3      110             0.0000000000
     25246       310  TIP3      H2            -24.8099051094      -33.0410539684       29.6905114110  TIP3      110             0.0000000000
     25247       311  TIP3      OH2           -37.4816368715      -33.7731602444       21.0853425594  TIP3      111             0.0000000000
     25248       311  TIP3      H1            -37.5111094955      -32.7927604700       21.0669149379  TIP3      111             0.0000000000
     25249       311  TIP3      H2            -38.2926430946      -33.9395572592       20.5349751138  TIP3      111             0.0000000000
     25250       312  TIP3      OH2           -24.1994194340      -23.0880905591       30.7886962162  TIP3      112             0.0000000000
     25251       312  TIP3      H1            -24.3586334568      -22.3220615998       30.1875394361  TIP3      112             0.0000000000
     25252       312  TIP3      H2            -23.2901824480      -22.8846142141       31.1058663018  TIP3      112             0.0000000000
     25253       313  TIP3      OH2           -36.6797998067      -38.8246294241       29.6314515933  TIP3      113             0.0000000000
     25254       313  TIP3      H1            -36.8861205084      -38.8570072532       28.6663433172  TIP3      113             0.0000000000
     25255       313  TIP3      H2            -37.0125140047      -39.6976059596       29.8298726227  TIP3      113             0.0000000000
     25256       314  TIP3      OH2           -37.7788152653      -25.0386361106       25.8108608902  TIP3      114             0.0000000000
     25257       314  TIP3      H1            -38.6307031817      -24.5898970436       25.7730882564  TIP3      114             0.0000000000
     25258       314  TIP3      H2            -37.2730763131      -24.5584672763       25.1444603082  TIP3      114             0.0000000000
     25259       315  TIP3      OH2           -38.5439216070      -22.3588146731       37.1010109363  TIP3      115             0.0000000000
     25260       315  TIP3      H1            -37.9495328295      -22.5957410609       37.8339643351  TIP3      115             0.0000000000
     25261       315  TIP3      H2            -38.9883685509      -23.1934037043       36.9067931933  TIP3      115             0.0000000000
     25262       316  TIP3      OH2           -33.9001268091      -23.4546966651       38.6958334460  TIP3      116             0.0000000000
     25263       316  TIP3      H1            -33.1595074623      -23.9750252841       39.0312789113  TIP3      116             0.0000000000
     25264       316  TIP3      H2            -33.9426897544      -23.7533350434       37.7657629403  TIP3      116             0.0000000000
     25265       317  TIP3      OH2           -27.3955628306      -25.0796886455       37.4420491116  TIP3      117             0.0000000000
     25266       317  TIP3      H1            -27.7096080830      -25.9670149778       37.7178733664  TIP3      117             0.0000000000
     25267       317  TIP3      H2            -26.6260717789      -24.9608657061       38.0321779003  TIP3      117             0.0000000000
     25268       318  TIP3      OH2           -38.5897077367      -28.6718727906       38.1766601655  TIP3      118             0.0000000000
     25269       318  TIP3      H1            -38.4505093625      -29.5673995906       37.8063162564  TIP3      118             0.0000000000
     25270       318  TIP3      H2            -39.0727355537      -28.2495573414       37.4586595535  TIP3      118             0.0000000000
     25271       319  TIP3      OH2           -31.9537471536      -28.6221340773       37.4649170710  TIP3      119             0.0000000000
     25272       319  TIP3      H1            -32.2939156820      -28.3089026736       36.6020660163  TIP3      119             0.0000000000
     25273       319  TIP3      H2            -31.8787000418      -29.5987323288       37.3565215526  TIP3      119             0.0000000000
     25274       320  TIP3      OH2           -26.2552520336      -28.7636984635       34.8596301827  TIP3      120             0.0000000000
     25275       320  TIP3      H1            -25.4668158335      -28.1813609858       34.7965728833  TIP3      120             0.0000000000
     25276       320  TIP3      H2            -26.9550171292      -28.0952611774       34.8915082929  TIP3      120             0.0000000000
     25277       321  TIP3      OH2           -37.8010883215      -31.3688059812       37.4442167429  TIP3      121             0.0000000000
     25278       321  TIP3      H1            -37.3362651543      -32.2172744788       37.3466345417  TIP3      121             0.0000000000
     25279       321  TIP3      H2            -37.9933176663      -31.4039569147       38.3922825952  TIP3      121             0.0000000000
     25280       322  TIP3      OH2           -33.8549589845      -32.4435799029       34.8172710521  TIP3      122             0.0000000000
     25281       322  TIP3      H1            -34.4737315417      -31.7354159342       35.0735268027  TIP3      122             0.0000000000
     25282       322  TIP3      H2            -33.4544138704      -32.0701817304       34.0115556931  TIP3      122             0.0000000000
     25283       323  TIP3      OH2           -31.9987686632      -31.8442121277       20.6651467365  TIP3      123             0.0000000000
     25284       323  TIP3      H1            -32.2124544892      -32.3264155707       19.8425204521  TIP3      123             0.0000000000
     25285       323  TIP3      H2            -31.0592550589      -32.0157019664       20.7562363233  TIP3      123             0.0000000000
     25286       324  TIP3      OH2           -28.7727258917      -29.8703574221       38.1545418897  TIP3      124             0.0000000000
     25287       324  TIP3      H1            -27.8168961073      -29.8846706952       38.0273657250  TIP3      124             0.0000000000
     25288       324  TIP3      H2            -28.9432452568      -30.6419456067       38.7179447116  TIP3      124             0.0000000000
     25289       325  TIP3      OH2           -33.4364057507      -35.0586709399       35.8731043307  TIP3      125             0.0000000000
     25290       325  TIP3      H1            -33.3044336783      -35.7526890839       35.2033757508  TIP3      125             0.0000000000
     25291       325  TIP3      H2            -33.5109282571      -34.2503416511       35.3251829105  TIP3      125             0.0000000000
     25292       326  TIP3      OH2           -33.0439957043      -36.6133985855       33.4302789087  TIP3      126             0.0000000000
     25293       326  TIP3      H1            -32.5166768407      -36.2142722649       32.6978899909  TIP3      126             0.0000000000
     25294       326  TIP3      H2            -33.9244734573      -36.7608503224       33.0120826685  TIP3      126             0.0000000000
     25295       327  TIP3      OH2           -31.4975678502      -31.1864303033       33.6687747405  TIP3      127             0.0000000000
     25296       327  TIP3      H1            -30.7448166492      -31.3561646598       33.0964080269  TIP3      127             0.0000000000
     25297       327  TIP3      H2            -31.8663219940      -30.3556491542       33.3301308315  TIP3      127             0.0000000000
     25298       328  TIP3      OH2           -27.1068230298      -33.4345560589       38.6196749035  TIP3      128             0.0000000000
     25299       328  TIP3      H1            -26.8589447927      -34.3653055804       38.5210744045  TIP3      128             0.0000000000
     25300       328  TIP3      H2            -26.2420096851      -32.9923018033       38.6649906455  TIP3      128             0.0000000000
     25301       329  TIP3      OH2           -25.7621022135      -30.6432725497       36.8041655041  TIP3      129             0.0000000000
     25302       329  TIP3      H1            -26.0200528428      -29.9280425627       36.1841677247  TIP3      129             0.0000000000
     25303       329  TIP3      H2            -24.8062571338      -30.6679692880       36.6092168619  TIP3      129             0.0000000000
     25304       330  TIP3      OH2           -34.9953666311      -33.7875508762       37.7906665390  TIP3      130             0.0000000000
     25305       330  TIP3      H1            -35.7526664532      -34.3812365261       37.6193841716  TIP3      130             0.0000000000
     25306       330  TIP3      H2            -34.3431863981      -34.1456159428       37.1611166551  TIP3      130             0.0000000000
     25307       331  TIP3      OH2           -32.1801724042      -39.0591545234       33.8662593280  TIP3      131             0.0000000000
     25308       331  TIP3      H1            -32.4186207809      -38.1122102541       33.7564932855  TIP3      131             0.0000000000
     25309       331  TIP3      H2            -32.9579440583      -39.4823385705       33.4822615004  TIP3      131             0.0000000000
     25310       332  TIP3      OH2           -30.9701549896      -34.9202559074       37.4406092824  TIP3      132             0.0000000000
     25311       332  TIP3      H1            -31.2877134232      -35.1689678041       38.3305156165  TIP3      132             0.0000000000
     25312       332  TIP3      H2            -31.7613013035      -35.1261460144       36.9102599379  TIP3      132             0.0000000000
     25313       333  TIP3      OH2           -28.2592273489      -35.7780716665       36.5509491712  TIP3      133             0.0000000000
     25314       333  TIP3      H1            -29.2272685775      -35.7249577253       36.6403745175  TIP3      133             0.0000000000
     25315       333  TIP3      H2            -28.0092997293      -36.4272615326       37.2334230641  TIP3      133             0.0000000000
     25316       334  TIP3      OH2           -26.6937841398      -36.9456159353       38.4672454360  TIP3      134             0.0000000000
     25317       334  TIP3      H1            -26.6858779530      -37.9368459462       38.4183444295  TIP3      134             0.0000000000
     25318       334  TIP3      H2            -26.9472538626      -36.8003717474       39.3923200349  TIP3      134             0.0000000000
     25319       335  TIP3      OH2           -36.7596278440      -35.9261311552       37.5863888590  TIP3      135             0.0000000000
     25320       335  TIP3      H1            -36.6620950002      -36.6738336527       36.9616997872  TIP3      135             0.0000000000
     25321       335  TIP3      H2            -36.9928118392      -36.3816965172       38.4141567492  TIP3      135             0.0000000000
     25322       336  TIP3      OH2           -32.0568078333       39.8578799646       36.5316084620  TIP3      136             0.0000000000
     25323       336  TIP3      H1            -31.3250804672       39.2321661066       36.5045757429  TIP3      136             0.0000000000
     25324       336  TIP3      H2            -32.1296767318       40.1231957369       35.5921148931  TIP3      136             0.0000000000
     25325       337  TIP3      OH2           -31.6061390925      -38.1556548329       38.5682597237  TIP3      137             0.0000000000
     25326       337  TIP3      H1            -31.8407383615      -38.7518152583       37.8310934731  TIP3      137             0.0000000000
     25327       337  TIP3      H2            -32.2682356740      -37.4519581904       38.5237230628  TIP3      137             0.0000000000
     25328       338  TIP3      OH2           -32.1724283055      -21.3241624389       21.7921697665  TIP3      138             0.0000000000
     25329       338  TIP3      H1            -31.2209617840      -21.1715546809       21.8583228278  TIP3      138             0.0000000000
     25330       338  TIP3      H2            -32.4416955873      -20.7025286622       21.0922818770  TIP3      138             0.0000000000
     25331       339  TIP3      OH2           -38.2455854440      -26.6362711332       21.0162508622  TIP3      139             0.0000000000
     25332       339  TIP3      H1            -37.3975242268      -26.7541686758       21.4253515908  TIP3      139             0.0000000000
     25333       339  TIP3      H2            -38.3668581221      -27.4344429047       20.4738794588  TIP3      139             0.0000000000
     25334       340  TIP3      OH2            40.2966786470      -21.1706651395       26.0350463575  TIP3      140             0.0000000000
     25335       340  TIP3      H1             39.4815191927      -21.6127326181       25.7373482193  TIP3      140             0.0000000000
     25336       340  TIP3      H2             40.4126027710      -21.7982903469       26.7799063681  TIP3      140             0.0000000000
     25337       341  TIP3      OH2           -38.9330644545      -23.2179688939       28.2087769625  TIP3      141             0.0000000000
     25338       341  TIP3      H1            -39.2468854019      -24.1275878241       28.3834750470  TIP3      141             0.0000000000
     25339       341  TIP3      H2            -38.6914609496      -22.9149207477       29.1074148498  TIP3      141             0.0000000000
     25340       342  TIP3      OH2           -21.5335691741      -22.4701693766       31.0423067745  TIP3      142             0.0000000000
     25341       342  TIP3      H1            -21.4759945159      -22.2686578445       31.9992266188  TIP3      142             0.0000000000
     25342       342  TIP3      H2            -20.8302692845      -21.8688993097       30.7386056117  TIP3      142             0.0000000000
     25343       343  TIP3      OH2           -21.9226326977      -22.8432718582       33.9771665495  TIP3      143             0.0000000000
     25344       343  TIP3      H1            -22.4119524245      -23.6174246534       33.6402170095  TIP3      143             0.0000000000
     25345       343  TIP3      H2            -21.4468614807      -23.2620503398       34.7165317228  TIP3      143             0.0000000000
     25346       344  TIP3      OH2           -23.4900016872      -27.1160681788       38.6708026433  TIP3      144             0.0000000000
     25347       344  TIP3      H1            -24.3981565561      -27.1448745173       39.0267402022  TIP3      144             0.0000000000
     25348       344  TIP3      H2            -23.1168839214      -26.3194983244       39.0966905580  TIP3      144             0.0000000000
     25349       345  TIP3      OH2           -22.1835192243      -28.7896394823       24.0842943685  TIP3      145             0.0000000000
     25350       345  TIP3      H1            -21.3001324746      -28.4014255269       24.2858143067  TIP3      145             0.0000000000
     25351       345  TIP3      H2            -22.1709416658      -29.5129760162       24.7498661192  TIP3      145             0.0000000000
     25352       346  TIP3      OH2           -21.8361727939      -30.6962569535       25.9841969109  TIP3      146             0.0000000000
     25353       346  TIP3      H1            -22.5589074967      -31.2272047468       26.3693611135  TIP3      146             0.0000000000
     25354       346  TIP3      H2            -21.2091541813      -30.5796168741       26.7260140387  TIP3      146             0.0000000000
     25355       347  TIP3      OH2           -22.0647434288      -28.0086054326       30.9237708317  TIP3      147             0.0000000000
     25356       347  TIP3      H1            -21.2486550308      -28.4313759576       30.5960838437  TIP3      147             0.0000000000
     25357       347  TIP3      H2            -21.8487382756      -27.0711033670       30.8216159980  TIP3      147             0.0000000000
     25358       348  TIP3      OH2           -23.5088664847      -25.0935392585       33.1824011279  TIP3      148             0.0000000000
     25359       348  TIP3      H1            -24.1584075436      -24.7715585393       33.8376492312  TIP3      148             0.0000000000
     25360       348  TIP3      H2            -24.0961225014      -25.5507005137       32.5601823220  TIP3      148             0.0000000000
     25361       349  TIP3      OH2           -21.6520978078      -30.9683605201       22.3856499398  TIP3      149             0.0000000000
     25362       349  TIP3      H1            -22.0047775034      -30.5195460493       21.6185035574  TIP3      149             0.0000000000
     25363       349  TIP3      H2            -21.4945108604      -30.2108960672       22.9878869069  TIP3      149             0.0000000000
     25364       350  TIP3      OH2           -23.1628140247      -33.7028150034       20.9145935736  TIP3      150             0.0000000000
     25365       350  TIP3      H1            -23.0957681517      -33.0265288082       20.2307442117  TIP3      150             0.0000000000
     25366       350  TIP3      H2            -23.3733959593      -34.5067163734       20.3931952066  TIP3      150             0.0000000000
     25367       351  TIP3      OH2           -24.0045664263      -32.2357223459       26.5564886850  TIP3      151             0.0000000000
     25368       351  TIP3      H1            -24.1372997787      -33.1948419120       26.5047186837  TIP3      151             0.0000000000
     25369       351  TIP3      H2            -24.3256342888      -32.0273366837       27.4506542679  TIP3      151             0.0000000000
     25370       352  TIP3      OH2           -38.9013377424      -30.3039460603       30.7255359526  TIP3      152             0.0000000000
     25371       352  TIP3      H1            -38.7479467144      -30.3008859334       29.7523743626  TIP3      152             0.0000000000
     25372       352  TIP3      H2            -37.9776512735      -30.3381163951       31.0497261685  TIP3      152             0.0000000000
     25373       353  TIP3      OH2           -23.1406575840      -30.2568775871       36.2358203928  TIP3      153             0.0000000000
     25374       353  TIP3      H1            -22.5344927328      -31.0198726370       36.3711752249  TIP3      153             0.0000000000
     25375       353  TIP3      H2            -22.5313489643      -29.4925526814       36.2452837473  TIP3      153             0.0000000000
     25376       354  TIP3      OH2           -21.6264924217      -32.3995200727       36.8904083086  TIP3      154             0.0000000000
     25377       354  TIP3      H1            -22.5152701192      -32.7869773808       36.7370610699  TIP3      154             0.0000000000
     25378       354  TIP3      H2            -21.0598404317      -33.1869599287       36.8129926126  TIP3      154             0.0000000000
     25379       355  TIP3      OH2           -23.9044217661      -36.1871739207       20.0763380893  TIP3      155             0.0000000000
     25380       355  TIP3      H1            -23.3225887338      -36.6779934301       20.6742930493  TIP3      155             0.0000000000
     25381       355  TIP3      H2            -24.7595001749      -36.6504832689       20.1354695779  TIP3      155             0.0000000000
     25382       356  TIP3      OH2           -24.3330299999      -34.6519898089       25.0018612222  TIP3      156             0.0000000000
     25383       356  TIP3      H1            -24.0244674195      -35.5755159121       25.1265205982  TIP3      156             0.0000000000
     25384       356  TIP3      H2            -23.5313234963      -34.2478230827       24.6301052967  TIP3      156             0.0000000000
     25385       357  TIP3      OH2           -23.6947248051      -34.0901825604       30.4422084618  TIP3      157             0.0000000000
     25386       357  TIP3      H1            -22.7293995742      -33.8921573748       30.4344904923  TIP3      157             0.0000000000
     25387       357  TIP3      H2            -23.8777761096      -33.9996875604       31.3889370464  TIP3      157             0.0000000000
     25388       358  TIP3      OH2           -23.6175314402      -33.3788050606       33.2284506309  TIP3      158             0.0000000000
     25389       358  TIP3      H1            -24.5062983386      -33.0923665786       33.5428181771  TIP3      158             0.0000000000
     25390       358  TIP3      H2            -23.1873793219      -32.5207050190       33.0094225360  TIP3      158             0.0000000000
     25391       359  TIP3      OH2           -39.2246224556      -34.7964653131       36.5861211396  TIP3      159             0.0000000000
     25392       359  TIP3      H1            -38.3468033678      -35.0396653945       36.9272675398  TIP3      159             0.0000000000
     25393       359  TIP3      H2            -39.8136849210      -35.4365791973       37.0273736514  TIP3      159             0.0000000000
     25394       360  TIP3      OH2           -21.1333374239      -39.2482568099       38.6469913739  TIP3      160             0.0000000000
     25395       360  TIP3      H1            -21.0877675148      -39.9991147569       38.0130805188  TIP3      160             0.0000000000
     25396       360  TIP3      H2            -21.2627286358      -38.4926548638       38.0369625286  TIP3      160             0.0000000000
     25397       361  TIP3      OH2           -23.6914894400      -37.3577851689       25.0583303766  TIP3      161             0.0000000000
     25398       361  TIP3      H1            -23.4708094658      -37.8077301340       25.9020343318  TIP3      161             0.0000000000
     25399       361  TIP3      H2            -24.2702274330      -38.0114231242       24.6020857049  TIP3      161             0.0000000000
     25400       362  TIP3      OH2           -38.1290460962      -36.5825058272       29.5027579282  TIP3      162             0.0000000000
     25401       362  TIP3      H1            -37.7155927242      -37.3810139246       29.8823908948  TIP3      162             0.0000000000
     25402       362  TIP3      H2            -37.6778076773      -35.8800841767       29.9905286883  TIP3      162             0.0000000000
     25403       363  TIP3      OH2           -39.8481071068      -33.0489021781       30.6037082411  TIP3      163             0.0000000000
     25404       363  TIP3      H1            -39.3138162744      -33.5162658472       29.9390163589  TIP3      163             0.0000000000
     25405       363  TIP3      H2            -39.2051298567      -32.4695499287       31.0190523498  TIP3      163             0.0000000000
     25406       364  TIP3      OH2           -21.8121617334      -37.2881619505       36.9149275781  TIP3      164             0.0000000000
     25407       364  TIP3      H1            -22.7390807263      -36.9741115784       36.8952162662  TIP3      164             0.0000000000
     25408       364  TIP3      H2            -21.8261502184      -37.8009346387       36.0987504224  TIP3      164             0.0000000000
     25409       365  TIP3      OH2           -21.7865927694      -37.3472082887       21.6553301019  TIP3      165             0.0000000000
     25410       365  TIP3      H1            -21.4480694027      -38.0280498079       21.0510109317  TIP3      165             0.0000000000
     25411       365  TIP3      H2            -21.1683408424      -36.6222266388       21.5664560355  TIP3      165             0.0000000000
     25412       366  TIP3      OH2           -39.5414696826      -37.3489086710       24.6833070716  TIP3      166             0.0000000000
     25413       366  TIP3      H1            -40.4671852134      -37.1350463925       24.5550680547  TIP3      166             0.0000000000
     25414       366  TIP3      H2            -39.0759690271      -36.8248882451       23.9915657686  TIP3      166             0.0000000000
     25415       367  TIP3      OH2           -24.7810853266      -22.3719122995       26.6923190925  TIP3      167             0.0000000000
     25416       367  TIP3      H1            -24.1141748255      -22.6243357922       26.0231783305  TIP3      167             0.0000000000
     25417       367  TIP3      H2            -24.2823832051      -21.7963974770       27.2870009117  TIP3      167             0.0000000000
     25418       368  TIP3      OH2            40.2056622371      -38.5980821451       33.0133058886  TIP3      168             0.0000000000
     25419       368  TIP3      H1             39.5270019503      -38.8821284967       33.6439709036  TIP3      168             0.0000000000
     25420       368  TIP3      H2             39.7445941582      -37.9461044046       32.4776239771  TIP3      168             0.0000000000
     25421       369  TIP3      OH2           -37.3816143645      -25.4300246746       37.2055866787  TIP3      169             0.0000000000
     25422       369  TIP3      H1            -38.2032680225      -25.2492939242       36.7488913804  TIP3      169             0.0000000000
     25423       369  TIP3      H2            -37.6248492049      -25.5399247458       38.1322787695  TIP3      169             0.0000000000
     25424       370  TIP3      OH2           -34.4434419118      -24.4382474482       33.4635471308  TIP3      170             0.0000000000
     25425       370  TIP3      H1            -34.7936118268      -23.5777506519       33.1875474868  TIP3      170             0.0000000000
     25426       370  TIP3      H2            -33.5167046109      -24.3488247177       33.1547779216  TIP3      170             0.0000000000
     25427       371  TIP3      OH2           -30.1164602948      -23.0157461588       36.3605862426  TIP3      171             0.0000000000
     25428       371  TIP3      H1            -29.9803488444      -23.3710571490       37.2704201071  TIP3      171             0.0000000000
     25429       371  TIP3      H2            -29.2135594135      -22.7144216556       36.1219678975  TIP3      171             0.0000000000
     25430       372  TIP3      OH2           -27.8279325447      -21.7515915279       35.6719155049  TIP3      172             0.0000000000
     25431       372  TIP3      H1            -27.0989369468      -22.3379929700       35.4382463306  TIP3      172             0.0000000000
     25432       372  TIP3      H2            -27.4565992694      -21.3116028523       36.4680721635  TIP3      172             0.0000000000
     25433       373  TIP3      OH2           -22.6135796514      -38.9381669757       34.5896922192  TIP3      173             0.0000000000
     25434       373  TIP3      H1            -23.5546406484      -38.7156634255       34.4218468788  TIP3      173             0.0000000000
     25435       373  TIP3      H2            -22.5214609684      -39.8620726007       34.3585441440  TIP3      173             0.0000000000
     25436       374  TIP3      OH2           -37.0238244317      -21.1879320799       33.4850215420  TIP3      174             0.0000000000
     25437       374  TIP3      H1            -37.7684127531      -20.7081452071       33.0689500319  TIP3      174             0.0000000000
     25438       374  TIP3      H2            -37.3489823696      -21.4160526306       34.3636404081  TIP3      174             0.0000000000
     25439       375  TIP3      OH2           -34.5353618629      -21.6224207359       32.5334173428  TIP3      175             0.0000000000
     25440       375  TIP3      H1            -35.4368223054      -21.4888723048       32.9092692116  TIP3      175             0.0000000000
     25441       375  TIP3      H2            -34.5873888300      -21.0398500491       31.7516339921  TIP3      175             0.0000000000
     25442       376  TIP3      OH2           -29.8357446296      -21.7160834958       31.6941168141  TIP3      176             0.0000000000
     25443       376  TIP3      H1            -30.2996820533      -21.1582944011       31.0501662853  TIP3      176             0.0000000000
     25444       376  TIP3      H2            -29.7058473830      -21.0836150446       32.4337631977  TIP3      176             0.0000000000
     25445       377  TIP3      OH2           -27.5241059899      -22.9151473996       32.6927238362  TIP3      177             0.0000000000
     25446       377  TIP3      H1            -28.3931658443      -22.6391045000       32.3559999145  TIP3      177             0.0000000000
     25447       377  TIP3      H2            -27.0756106926      -22.0545933422       32.6484003795  TIP3      177             0.0000000000
     25448       378  TIP3      OH2           -24.9533101930      -21.3461706644       32.9388743260  TIP3      178             0.0000000000
     25449       378  TIP3      H1            -25.0253821471      -20.3785212630       32.7365963873  TIP3      178             0.0000000000
     25450       378  TIP3      H2            -24.7567241993      -21.6921289673       32.0565471247  TIP3      178             0.0000000000
     25451       379  TIP3      OH2           -37.5217952292      -22.5038230502       30.4082379367  TIP3      179             0.0000000000
     25452       379  TIP3      H1            -37.6226685320      -23.0008279169       31.2413623773  TIP3      179             0.0000000000
     25453       379  TIP3      H2            -36.7618298494      -22.9479279779       29.9899859676  TIP3      179             0.0000000000
     25454       380  TIP3      OH2           -35.4891115294      -23.8546228058       29.0560187637  TIP3      180             0.0000000000
     25455       380  TIP3      H1            -35.6556117965      -24.7863001697       29.2927255997  TIP3      180             0.0000000000
     25456       380  TIP3      H2            -34.6335505587      -23.6868486745       29.5066140078  TIP3      180             0.0000000000
     25457       381  TIP3      OH2           -32.8820035859      -23.3657724770       29.9289285490  TIP3      181             0.0000000000
     25458       381  TIP3      H1            -32.7194573390      -24.2898248865       29.6660914240  TIP3      181             0.0000000000
     25459       381  TIP3      H2            -32.8261133779      -23.4161519438       30.8935933326  TIP3      181             0.0000000000
     25460       382  TIP3      OH2           -29.4565055243      -37.6657334145       29.0591922318  TIP3      182             0.0000000000
     25461       382  TIP3      H1            -30.0773541613      -38.3383061282       29.3708920285  TIP3      182             0.0000000000
     25462       382  TIP3      H2            -28.8402313518      -38.2059521156       28.5429597973  TIP3      182             0.0000000000
     25463       383  TIP3      OH2           -24.2380066988      -38.8712994056       29.4270274806  TIP3      183             0.0000000000
     25464       383  TIP3      H1            -23.6274939246      -38.9079992828       28.6418312065  TIP3      183             0.0000000000
     25465       383  TIP3      H2            -25.0812487200      -39.1868425068       29.0422979879  TIP3      183             0.0000000000
     25466       384  TIP3      OH2           -22.6300346614      -38.4331986338       27.3785689966  TIP3      184             0.0000000000
     25467       384  TIP3      H1            -21.9446098425      -39.0406316002       27.0290244657  TIP3      184             0.0000000000
     25468       384  TIP3      H2            -22.1262283144      -37.5927259674       27.5011559250  TIP3      184             0.0000000000
     25469       385  TIP3      OH2           -37.0594500453      -39.1009684801       26.9252468217  TIP3      185             0.0000000000
     25470       385  TIP3      H1            -37.8300339308      -39.2942975249       26.3693909562  TIP3      185             0.0000000000
     25471       385  TIP3      H2            -36.5926338844      -39.9488842139       26.8563149253  TIP3      185             0.0000000000
     25472       386  TIP3      OH2           -38.3346091792      -39.3269267013       22.6757909596  TIP3      186             0.0000000000
     25473       386  TIP3      H1            -37.8120576763      -38.7350212565       22.0835547140  TIP3      186             0.0000000000
     25474       386  TIP3      H2            -38.8751338889      -38.7031962442       23.1823888953  TIP3      186             0.0000000000
     25475       387  TIP3      OH2           -32.6920928940      -38.7797431689       26.5803024310  TIP3      187             0.0000000000
     25476       387  TIP3      H1            -31.7279517349      -38.6958586879       26.4989866086  TIP3      187             0.0000000000
     25477       387  TIP3      H2            -32.6834411400      -39.2564970649       27.4077666806  TIP3      187             0.0000000000
     25478       388  TIP3      OH2           -27.0380678901      -39.0242327982       28.5165896493  TIP3      188             0.0000000000
     25479       388  TIP3      H1            -26.9709054310      -38.9323687017       27.5510024249  TIP3      188             0.0000000000
     25480       388  TIP3      H2            -27.2065472079      -39.9800384930       28.5636967068  TIP3      188             0.0000000000
     25481       389  TIP3      OH2           -25.6341671384      -39.0585401919       24.0172961812  TIP3      189             0.0000000000
     25482       389  TIP3      H1            -26.3855392722      -38.4806377159       23.7926868061  TIP3      189             0.0000000000
     25483       389  TIP3      H2            -25.9950309391      -39.9443310827       24.1567215331  TIP3      189             0.0000000000
     25484       390  TIP3      OH2           -38.3448184474      -23.3626904000       23.5808438227  TIP3      190             0.0000000000
     25485       390  TIP3      H1            -39.0761467028      -23.3862599147       22.9606710390  TIP3      190             0.0000000000
     25486       390  TIP3      H2            -38.3499083686      -22.4425647491       23.8744072977  TIP3      190             0.0000000000
     25487       391  TIP3      OH2           -36.4876208848      -37.4896255828       21.1933079332  TIP3      191             0.0000000000
     25488       391  TIP3      H1            -35.9384938720      -37.9503799409       20.5534796507  TIP3      191             0.0000000000
     25489       391  TIP3      H2            -35.8120139342      -37.0439303263       21.7277931974  TIP3      191             0.0000000000
     25490       392  TIP3      OH2           -29.4628442912      -22.0871734730       21.9539168362  TIP3      192             0.0000000000
     25491       392  TIP3      H1            -28.5478389399      -21.8181995471       21.7784267588  TIP3      192             0.0000000000
     25492       392  TIP3      H2            -29.6642000980      -22.5877465412       21.1551118923  TIP3      192             0.0000000000
     25493       393  TIP3      OH2           -22.8303579452      -22.5527709350       24.7004895437  TIP3      193             0.0000000000
     25494       393  TIP3      H1            -23.0222490811      -23.3361688700       24.1254433987  TIP3      193             0.0000000000
     25495       393  TIP3      H2            -22.8846252755      -21.8330730835       24.0310023655  TIP3      193             0.0000000000
     25496       394  TIP3      OH2           -37.1922306430      -38.3169606692       36.3742569758  TIP3      194             0.0000000000
     25497       394  TIP3      H1            -37.5672493821      -39.1675592624       36.7086647280  TIP3      194             0.0000000000
     25498       394  TIP3      H2            -36.2826500540      -38.5080024266       36.6633463911  TIP3      194             0.0000000000
     25499       395  TIP3      OH2           -34.9864403008      -39.0503060711       38.0756851813  TIP3      195             0.0000000000
     25500       395  TIP3      H1            -34.2306749881      -39.4262703044       37.5923800723  TIP3      195             0.0000000000
     25501       395  TIP3      H2            -35.5256191286      -39.8519457282       38.2617850405  TIP3      195             0.0000000000
     25502       396  TIP3      OH2           -26.5843820476       40.3621488608       38.1516787185  TIP3      196             0.0000000000
     25503       396  TIP3      H1            -26.7126854441       39.6523993099       38.8081708616  TIP3      196             0.0000000000
     25504       396  TIP3      H2            -25.8200202615       39.9754126881       37.6934297215  TIP3      196             0.0000000000
     25505       397  TIP3      OH2           -23.5490177419      -23.8219002683       36.7855194576  TIP3      197             0.0000000000
     25506       397  TIP3      H1            -24.3546017578      -23.9583786990       36.2407242786  TIP3      197             0.0000000000
     25507       397  TIP3      H2            -23.6673265878      -22.8760232230       37.0068744790  TIP3      197             0.0000000000
     25508       398  TIP3      OH2            -9.1093318471      -29.9444026866       26.7880204625  TIP3      198             0.0000000000
     25509       398  TIP3      H1             -9.1209970542      -28.9643301197       26.7308829367  TIP3      198             0.0000000000
     25510       398  TIP3      H2             -9.8143833383      -30.1748515454       26.1642619404  TIP3      198             0.0000000000
     25511       399  TIP3      OH2           -10.2262161783      -30.6955953698       30.2848493224  TIP3      199             0.0000000000
     25512       399  TIP3      H1            -10.2586981595      -31.3484027486       30.9949065812  TIP3      199             0.0000000000
     25513       399  TIP3      H2            -10.5997343094      -31.1791063748       29.5292245797  TIP3      199             0.0000000000
     25514       400  TIP3      OH2           -17.8855403098      -31.0125257936       31.7997987327  TIP3      200             0.0000000000
     25515       400  TIP3      H1            -17.8210603411      -31.6953136031       32.5001609829  TIP3      200             0.0000000000
     25516       400  TIP3      H2            -17.1472658193      -30.4434852773       32.0625822977  TIP3      200             0.0000000000
     25517       401  TIP3      OH2            -6.5657898744      -27.7422136459       28.5556449837  TIP3      201             0.0000000000
     25518       401  TIP3      H1             -6.9813215135      -28.4582836441       29.0466164854  TIP3      201             0.0000000000
     25519       401  TIP3      H2             -6.5411611946      -27.0342917640       29.2263732861  TIP3      201             0.0000000000
     25520       402  TIP3      OH2           -16.9551389858      -26.5554099217       30.2610066698  TIP3      202             0.0000000000
     25521       402  TIP3      H1            -17.3089546383      -27.4411581331       30.0366296073  TIP3      202             0.0000000000
     25522       402  TIP3      H2            -16.0246686429      -26.7665237162       30.4373608585  TIP3      202             0.0000000000
     25523       403  TIP3      OH2           -20.3609152745      -33.0259118262       25.8427335108  TIP3      203             0.0000000000
     25524       403  TIP3      H1            -20.7360766967      -32.1288624449       25.7166479930  TIP3      203             0.0000000000
     25525       403  TIP3      H2            -20.8908759613      -33.5363884348       25.2195105261  TIP3      203             0.0000000000
     25526       404  TIP3      OH2           -19.6073762152      -30.7742383595       27.9911721137  TIP3      204             0.0000000000
     25527       404  TIP3      H1            -19.3279418727      -31.6139070005       28.3929684867  TIP3      204             0.0000000000
     25528       404  TIP3      H2            -18.9579970566      -30.6346440936       27.2692882785  TIP3      204             0.0000000000
     25529       405  TIP3      OH2            -9.4404098743      -22.5760368197       28.7974826370  TIP3      205             0.0000000000
     25530       405  TIP3      H1             -8.7991968242      -23.2711551023       28.5043097593  TIP3      205             0.0000000000
     25531       405  TIP3      H2             -9.6597375988      -22.9181033515       29.6637791485  TIP3      205             0.0000000000
     25532       406  TIP3      OH2           -11.8821323993      -28.2820501394       30.7131093894  TIP3      206             0.0000000000
     25533       406  TIP3      H1            -11.5173192451      -28.9309569757       30.0932947744  TIP3      206             0.0000000000
     25534       406  TIP3      H2            -11.0845392242      -28.1304097702       31.2592609955  TIP3      206             0.0000000000
     25535       407  TIP3      OH2            -3.2573556763      -36.6561547319       31.4726141252  TIP3      207             0.0000000000
     25536       407  TIP3      H1             -3.0925264795      -36.0525878585       32.2353248021  TIP3      207             0.0000000000
     25537       407  TIP3      H2             -2.7307831701      -36.2182091648       30.7882002775  TIP3      207             0.0000000000
     25538       408  TIP3      OH2            -8.7067486863      -33.8325766209       31.0674643224  TIP3      208             0.0000000000
     25539       408  TIP3      H1             -8.5424066754      -34.7987244747       31.0590414318  TIP3      208             0.0000000000
     25540       408  TIP3      H2             -8.8132381991      -33.6774168513       30.1080926284  TIP3      208             0.0000000000
     25541       409  TIP3      OH2           -15.6059644511      -35.7295337582       28.2694606204  TIP3      209             0.0000000000
     25542       409  TIP3      H1            -15.4812125119      -34.8937891828       27.7750137306  TIP3      209             0.0000000000
     25543       409  TIP3      H2            -15.9790638808      -36.3047250210       27.5697864775  TIP3      209             0.0000000000
     25544       410  TIP3      OH2            -7.8136046719      -35.7152899316       26.5970684986  TIP3      210             0.0000000000
     25545       410  TIP3      H1             -7.1871408582      -35.9283931881       27.3290375698  TIP3      210             0.0000000000
     25546       410  TIP3      H2             -7.3010480759      -35.0532378240       26.0988201528  TIP3      210             0.0000000000
     25547       411  TIP3      OH2           -18.9921609086      -33.3471524980       29.0259338362  TIP3      211             0.0000000000
     25548       411  TIP3      H1            -18.3110016768      -33.8841936069       29.4772465010  TIP3      211             0.0000000000
     25549       411  TIP3      H2            -18.8553171521      -33.6137608205       28.1026484969  TIP3      211             0.0000000000
     25550       412  TIP3      OH2           -13.8040219736      -31.7815212997       28.3391803597  TIP3      212             0.0000000000
     25551       412  TIP3      H1            -13.1299657427      -32.3702567908       28.7300062995  TIP3      212             0.0000000000
     25552       412  TIP3      H2            -14.3200773466      -32.4330156203       27.8169223012  TIP3      212             0.0000000000
     25553       413  TIP3      OH2            -2.8356232121      -35.2483206068       33.7375658611  TIP3      213             0.0000000000
     25554       413  TIP3      H1             -3.4496359203      -34.4877304117       33.6270734502  TIP3      213             0.0000000000
     25555       413  TIP3      H2             -2.7990327127      -35.3049828904       34.7001756694  TIP3      213             0.0000000000
     25556       414  TIP3      OH2           -16.6743405918      -36.8162490853       32.3246505404  TIP3      214             0.0000000000
     25557       414  TIP3      H1            -16.9809593813      -36.2889932886       31.5599158204  TIP3      214             0.0000000000
     25558       414  TIP3      H2            -17.3777336063      -36.6111483742       32.9924265366  TIP3      214             0.0000000000
     25559       415  TIP3      OH2            -9.4584441540      -27.3743918996       25.8712209483  TIP3      215             0.0000000000
     25560       415  TIP3      H1             -9.6359762555      -27.6225683058       24.9458322202  TIP3      215             0.0000000000
     25561       415  TIP3      H2             -9.6734428708      -26.4145938133       25.8967183469  TIP3      215             0.0000000000
     25562       416  TIP3      OH2           -14.1876650497      -29.1871735361       32.5039785622  TIP3      216             0.0000000000
     25563       416  TIP3      H1            -14.8770605028      -28.5481613261       32.7893716493  TIP3      216             0.0000000000
     25564       416  TIP3      H2            -13.4575749026      -28.5891732958       32.2828242124  TIP3      216             0.0000000000
     25565       417  TIP3      OH2            -6.0866340711      -36.2721435995       28.6320278046  TIP3      217             0.0000000000
     25566       417  TIP3      H1             -6.2116651987      -37.0754975229       29.1705635609  TIP3      217             0.0000000000
     25567       417  TIP3      H2             -5.3899987936      -35.8626094235       29.1694594082  TIP3      217             0.0000000000
     25568       418  TIP3      OH2           -17.1227812338      -34.9530814891       30.3390536572  TIP3      218             0.0000000000
     25569       418  TIP3      H1            -16.4868417524      -34.2879601891       30.6756478157  TIP3      218             0.0000000000
     25570       418  TIP3      H2            -16.5981724368      -35.3714541350       29.6084875409  TIP3      218             0.0000000000
     25571       419  TIP3      OH2           -15.7250405256      -27.1916253420       33.3402893991  TIP3      219             0.0000000000
     25572       419  TIP3      H1            -15.7700274760      -26.2596695441       33.0540861412  TIP3      219             0.0000000000
     25573       419  TIP3      H2            -16.5972250526      -27.2709029172       33.8047746377  TIP3      219             0.0000000000
     25574       420  TIP3      OH2           -19.8396543237      -27.5234029300       24.1716050464  TIP3      220             0.0000000000
     25575       420  TIP3      H1            -19.8315862998      -27.2679334003       23.2449412181  TIP3      220             0.0000000000
     25576       420  TIP3      H2            -19.5510516503      -26.7381401828       24.6739918258  TIP3      220             0.0000000000
     25577       421  TIP3      OH2            -6.0384642829      -25.9023492461       30.9234005621  TIP3      221             0.0000000000
     25578       421  TIP3      H1             -7.0062827621      -25.7910839371       31.0410634535  TIP3      221             0.0000000000
     25579       421  TIP3      H2             -5.7681498057      -24.9874520746       30.7187206975  TIP3      221             0.0000000000
     25580       422  TIP3      OH2            -5.6704359197      -37.6060834986       32.3986167668  TIP3      222             0.0000000000
     25581       422  TIP3      H1             -6.4328607888      -37.0415344854       32.2139965640  TIP3      222             0.0000000000
     25582       422  TIP3      H2             -5.0076294531      -37.2250330879       31.7880326372  TIP3      222             0.0000000000
     25583       423  TIP3      OH2           -12.7120480450      -39.4864871512       29.8520616796  TIP3      223             0.0000000000
     25584       423  TIP3      H1            -12.8557023640      -40.4405559096       29.9031168776  TIP3      223             0.0000000000
     25585       423  TIP3      H2            -13.5957350878      -39.1536904195       30.1010054687  TIP3      223             0.0000000000
     25586       424  TIP3      OH2            -7.7941248857      -24.1191187664       27.4944623247  TIP3      224             0.0000000000
     25587       424  TIP3      H1             -7.3402577026      -24.8414823782       27.0089460334  TIP3      224             0.0000000000
     25588       424  TIP3      H2             -7.3273576387      -23.3317325370       27.1350594371  TIP3      224             0.0000000000
     25589       425  TIP3      OH2            -6.5954442933      -26.1889000273       26.0593962542  TIP3      225             0.0000000000
     25590       425  TIP3      H1             -6.8366022288      -26.8848577301       25.4185345284  TIP3      225             0.0000000000
     25591       425  TIP3      H2             -6.5359218146      -26.7061720857       26.8766830955  TIP3      225             0.0000000000
     25592       426  TIP3      OH2            -4.9525920078      -27.5945001040       34.5219537178  TIP3      226             0.0000000000
     25593       426  TIP3      H1             -4.8024796564      -28.2502433042       33.8051733336  TIP3      226             0.0000000000
     25594       426  TIP3      H2             -4.7423810757      -26.7540063756       34.0758277732  TIP3      226             0.0000000000
     25595       427  TIP3      OH2           -10.4250661794      -30.7079601797       24.2959490874  TIP3      227             0.0000000000
     25596       427  TIP3      H1            -11.1185968607      -30.1539072477       23.9004370549  TIP3      227             0.0000000000
     25597       427  TIP3      H2             -9.7383687194      -30.6296877513       23.5976408299  TIP3      227             0.0000000000
     25598       428  TIP3      OH2            -3.0599400414      -31.2818935675       32.5661076370  TIP3      228             0.0000000000
     25599       428  TIP3      H1             -3.7179368085      -30.5598525332       32.6038451535  TIP3      228             0.0000000000
     25600       428  TIP3      H2             -2.5681960771      -31.0478541078       31.7582419102  TIP3      228             0.0000000000
     25601       429  TIP3      OH2            -6.9929006378      -30.5125283274       25.2166875221  TIP3      229             0.0000000000
     25602       429  TIP3      H1             -7.7409871469      -30.2562319640       25.8078838398  TIP3      229             0.0000000000
     25603       429  TIP3      H2             -6.5211864861      -31.1692814806       25.7543580293  TIP3      229             0.0000000000
     25604       430  TIP3      OH2            -7.0759375303      -32.3349253819       34.3359171518  TIP3      230             0.0000000000
     25605       430  TIP3      H1             -7.0648800803      -31.5124226787       34.8536093442  TIP3      230             0.0000000000
     25606       430  TIP3      H2             -7.7002620733      -32.0408817487       33.6404281443  TIP3      230             0.0000000000
     25607       431  TIP3      OH2           -15.1926632461      -29.8024493455       27.2123539942  TIP3      231             0.0000000000
     25608       431  TIP3      H1            -15.7402472903      -30.1177423311       26.4359043822  TIP3      231             0.0000000000
     25609       431  TIP3      H2            -14.7266821037      -30.6267486357       27.4698971482  TIP3      231             0.0000000000
     25610       432  TIP3      OH2           -14.0833341648      -26.4928456925       29.8044876628  TIP3      232             0.0000000000
     25611       432  TIP3      H1            -13.8980479380      -27.0087675286       29.0343730139  TIP3      232             0.0000000000
     25612       432  TIP3      H2            -13.2874357942      -26.7544071515       30.3168394268  TIP3      232             0.0000000000
     25613       433  TIP3      OH2           -15.0715044389      -31.0842481678       30.7862402146  TIP3      233             0.0000000000
     25614       433  TIP3      H1            -14.5073053606      -31.0130036311       29.9922142286  TIP3      233             0.0000000000
     25615       433  TIP3      H2            -14.6609648030      -30.4405722118       31.4079271485  TIP3      233             0.0000000000
     25616       434  TIP3      OH2            -8.6569719469      -25.5144079042       31.4862998966  TIP3      234             0.0000000000
     25617       434  TIP3      H1             -8.9326507721      -24.8801595183       32.1533403662  TIP3      234             0.0000000000
     25618       434  TIP3      H2             -8.8970127003      -26.3691395876       31.9139714673  TIP3      234             0.0000000000
     25619       435  TIP3      OH2           -14.1069654620      -26.6677899747       35.4705932192  TIP3      235             0.0000000000
     25620       435  TIP3      H1            -14.5118565029      -25.9238645715       35.9572333395  TIP3      235             0.0000000000
     25621       435  TIP3      H2            -14.7841944397      -26.8638547028       34.7794763489  TIP3      235             0.0000000000
     25622       436  TIP3      OH2            -8.1592902504      -31.2740581688       22.9149547714  TIP3      236             0.0000000000
     25623       436  TIP3      H1             -7.5759059789      -31.0945996152       23.6832902445  TIP3      236             0.0000000000
     25624       436  TIP3      H2             -7.7166516093      -30.8252049643       22.1635750806  TIP3      236             0.0000000000
     25625       437  TIP3      OH2           -17.1488811432      -30.5275052550       34.6629654703  TIP3      237             0.0000000000
     25626       437  TIP3      H1            -17.1215000523      -29.8317731732       35.3472923562  TIP3      237             0.0000000000
     25627       437  TIP3      H2            -18.0857157658      -30.4299229897       34.4241138656  TIP3      237             0.0000000000
     25628       438  TIP3      OH2           -10.4584525733      -24.5888537093       26.3674723724  TIP3      238             0.0000000000
     25629       438  TIP3      H1             -9.9794413008      -24.2893265219       27.1514423379  TIP3      238             0.0000000000
     25630       438  TIP3      H2            -10.9533727607      -23.7955796158       26.1380127940  TIP3      238             0.0000000000
     25631       439  TIP3      OH2           -15.8782942841      -24.6215887370       36.2446338838  TIP3      239             0.0000000000
     25632       439  TIP3      H1            -15.9071249757      -24.7192205934       35.2751788097  TIP3      239             0.0000000000
     25633       439  TIP3      H2            -16.8183175182      -24.7648198199       36.4601306725  TIP3      239             0.0000000000
     25634       440  TIP3      OH2            -4.4397946042      -39.5324287354       22.6685208225  TIP3      240             0.0000000000
     25635       440  TIP3      H1             -5.3239465685      -39.4466001948       23.0693333179  TIP3      240             0.0000000000
     25636       440  TIP3      H2             -4.2269502178      -38.6362625245       22.4195888094  TIP3      240             0.0000000000
     25637       441  TIP3      OH2           -16.1763188073      -31.1833247627       24.2576733769  TIP3      241             0.0000000000
     25638       441  TIP3      H1            -16.4725479331      -30.2375353709       24.2260320098  TIP3      241             0.0000000000
     25639       441  TIP3      H2            -17.0337545024      -31.4949214156       24.5786734687  TIP3      241             0.0000000000
     25640       442  TIP3      OH2            -3.1946801401      -25.1585233714       21.3059903038  TIP3      242             0.0000000000
     25641       442  TIP3      H1             -3.1247282752      -24.1950369954       21.2562547101  TIP3      242             0.0000000000
     25642       442  TIP3      H2             -2.2959515758      -25.4574039255       21.1101908676  TIP3      242             0.0000000000
     25643       443  TIP3      OH2           -20.3438650306      -28.3710107906       33.6318247924  TIP3      243             0.0000000000
     25644       443  TIP3      H1            -20.7741423601      -28.4822158835       32.7690572947  TIP3      243             0.0000000000
     25645       443  TIP3      H2            -20.2434016372      -29.3179957217       33.8562605959  TIP3      243             0.0000000000
     25646       444  TIP3      OH2           -20.6366197346      -25.5818069950       30.4102698084  TIP3      244             0.0000000000
     25647       444  TIP3      H1            -19.6811039407      -25.7958635616       30.3987589109  TIP3      244             0.0000000000
     25648       444  TIP3      H2            -20.5903213429      -24.7962286177       30.9685751408  TIP3      244             0.0000000000
     25649       445  TIP3      OH2            -2.3299823399      -24.9446501949       36.1069302070  TIP3      245             0.0000000000
     25650       445  TIP3      H1             -2.4503501211      -25.9052531557       36.0762570950  TIP3      245             0.0000000000
     25651       445  TIP3      H2             -3.2053692867      -24.6978667515       36.4896674746  TIP3      245             0.0000000000
     25652       446  TIP3      OH2           -11.3742509163      -25.4061071655       34.9662012047  TIP3      246             0.0000000000
     25653       446  TIP3      H1            -11.3144592095      -24.5640700111       35.4774609832  TIP3      246             0.0000000000
     25654       446  TIP3      H2            -12.2481623871      -25.7605292561       35.2150912537  TIP3      246             0.0000000000
     25655       447  TIP3      OH2           -10.9231832628      -21.6638562044       24.7339172755  TIP3      247             0.0000000000
     25656       447  TIP3      H1            -11.0383586122      -21.7020247950       23.7734198185  TIP3      247             0.0000000000
     25657       447  TIP3      H2            -10.9153737755      -20.7103092752       24.9472203857  TIP3      247             0.0000000000
     25658       448  TIP3      OH2           -17.2945878568      -22.7969618488       26.6016220516  TIP3      248             0.0000000000
     25659       448  TIP3      H1            -17.1609083262      -23.1846921337       27.4922973982  TIP3      248             0.0000000000
     25660       448  TIP3      H2            -18.1399462793      -23.2084306664       26.3398042406  TIP3      248             0.0000000000
     25661       449  TIP3      OH2            -7.9277363789      -22.4485057131       21.7308718477  TIP3      249             0.0000000000
     25662       449  TIP3      H1             -7.4502541332      -23.1922978149       21.3050993186  TIP3      249             0.0000000000
     25663       449  TIP3      H2             -7.8136769853      -22.7234671121       22.6674252435  TIP3      249             0.0000000000
     25664       450  TIP3      OH2            -8.1947491658      -22.4863208970       24.5312259020  TIP3      250             0.0000000000
     25665       450  TIP3      H1             -9.1480455067      -22.4355558078       24.7188145750  TIP3      250             0.0000000000
     25666       450  TIP3      H2             -7.9310213077      -23.2481425493       25.0752454820  TIP3      250             0.0000000000
     25667       451  TIP3      OH2            -5.1974683231      -33.4625513460       36.5810242084  TIP3      251             0.0000000000
     25668       451  TIP3      H1             -5.6630565916      -33.0169834785       35.8551918105  TIP3      251             0.0000000000
     25669       451  TIP3      H2             -5.2020627592      -34.3869093451       36.2785206712  TIP3      251             0.0000000000
     25670       452  TIP3      OH2           -18.0432973663      -27.0733835204       34.5710757558  TIP3      252             0.0000000000
     25671       452  TIP3      H1            -17.8239764498      -27.4474358033       35.4486782495  TIP3      252             0.0000000000
     25672       452  TIP3      H2            -18.9161408557      -27.4650694856       34.3624969137  TIP3      252             0.0000000000
     25673       453  TIP3      OH2           -15.3252370630      -38.6017549480       30.6014781936  TIP3      253             0.0000000000
     25674       453  TIP3      H1            -16.1964983903      -38.6923215946       30.1564102643  TIP3      253             0.0000000000
     25675       453  TIP3      H2            -15.4919920473      -37.7597458975       31.0430619577  TIP3      253             0.0000000000
     25676       454  TIP3      OH2           -10.8137156522      -38.6228683357       34.1726869637  TIP3      254             0.0000000000
     25677       454  TIP3      H1            -10.3221004589      -39.3298507081       34.6163891931  TIP3      254             0.0000000000
     25678       454  TIP3      H2            -11.7084243318      -39.0175273568       34.0442364536  TIP3      254             0.0000000000
     25679       455  TIP3      OH2            -7.4398134156      -35.1124721778       34.7770778650  TIP3      255             0.0000000000
     25680       455  TIP3      H1             -7.9939846139      -35.2745406270       35.5758104615  TIP3      255             0.0000000000
     25681       455  TIP3      H2             -7.6035215404      -34.1801582540       34.5496620983  TIP3      255             0.0000000000
     25682       456  TIP3      OH2            -6.6884222958      -30.2953428870       20.6641809177  TIP3      256             0.0000000000
     25683       456  TIP3      H1             -6.7156732729      -30.4563303610       19.7233820968  TIP3      256             0.0000000000
     25684       456  TIP3      H2             -5.8646093024      -29.8204639995       20.7893373938  TIP3      256             0.0000000000
     25685       457  TIP3      OH2           -15.2416683239      -33.6109669095       31.8265897910  TIP3      257             0.0000000000
     25686       457  TIP3      H1            -16.0271145457      -33.6349109256       32.4016363079  TIP3      257             0.0000000000
     25687       457  TIP3      H2            -15.3117019315      -32.7209954505       31.4048957631  TIP3      257             0.0000000000
     25688       458  TIP3      OH2           -15.3024993748      -33.5808162310       26.6770104846  TIP3      258             0.0000000000
     25689       458  TIP3      H1            -16.2517845720      -33.7259564474       26.4958006948  TIP3      258             0.0000000000
     25690       458  TIP3      H2            -14.9244730024      -33.7913194005       25.8027734958  TIP3      258             0.0000000000
     25691       459  TIP3      OH2            -9.7966469912      -33.0116993603       25.3826027744  TIP3      259             0.0000000000
     25692       459  TIP3      H1            -10.1763863397      -32.1570722599       25.0694440502  TIP3      259             0.0000000000
     25693       459  TIP3      H2             -9.0893239108      -33.1578972656       24.7262094114  TIP3      259             0.0000000000
     25694       460  TIP3      OH2           -10.7864821022      -32.8102911415       36.8942513326  TIP3      260             0.0000000000
     25695       460  TIP3      H1            -11.1474993357      -33.6699138309       37.1907571782  TIP3      260             0.0000000000
     25696       460  TIP3      H2             -9.8932140866      -32.8706180689       37.2919882895  TIP3      260             0.0000000000
     25697       461  TIP3      OH2            -8.7419286014      -33.4975470981       28.2591077503  TIP3      261             0.0000000000
     25698       461  TIP3      H1             -9.0318606469      -32.9480474360       27.5120580388  TIP3      261             0.0000000000
     25699       461  TIP3      H2             -8.6428775537      -34.3528739601       27.8103994163  TIP3      261             0.0000000000
     25700       462  TIP3      OH2           -17.6254271308      -33.3811079298       33.4664309536  TIP3      262             0.0000000000
     25701       462  TIP3      H1            -17.5916280591      -32.9606834580       34.3389198156  TIP3      262             0.0000000000
     25702       462  TIP3      H2            -18.1067262512      -34.2026870941       33.6516293572  TIP3      262             0.0000000000
     25703       463  TIP3      OH2           -21.0125256097      -36.2667811133       27.4417822601  TIP3      263             0.0000000000
     25704       463  TIP3      H1            -20.3292428935      -36.2458141968       28.1418814912  TIP3      263             0.0000000000
     25705       463  TIP3      H2            -20.5352568631      -36.6056866805       26.6654716212  TIP3      263             0.0000000000
     25706       464  TIP3      OH2            -9.5622368774      -31.9262209499       32.8092469408  TIP3      264             0.0000000000
     25707       464  TIP3      H1             -9.1692940687      -32.6112327518       32.2275633694  TIP3      264             0.0000000000
     25708       464  TIP3      H2            -10.0093281123      -32.4615303342       33.4812182394  TIP3      264             0.0000000000
     25709       465  TIP3      OH2           -12.7460511211      -35.9917201398       27.6514338217  TIP3      265             0.0000000000
     25710       465  TIP3      H1            -13.6854249567      -35.9800999754       27.9406563276  TIP3      265             0.0000000000
     25711       465  TIP3      H2            -12.2767867222      -36.1047692356       28.4915468786  TIP3      265             0.0000000000
     25712       466  TIP3      OH2           -17.9499694864      -34.4220269061       26.5367917925  TIP3      266             0.0000000000
     25713       466  TIP3      H1            -18.8201636373      -34.2320692218       26.1293906909  TIP3      266             0.0000000000
     25714       466  TIP3      H2            -17.6534516617      -35.2500705101       26.1142458437  TIP3      266             0.0000000000
     25715       467  TIP3      OH2           -14.3363752394      -34.3278491668       24.1594316266  TIP3      267             0.0000000000
     25716       467  TIP3      H1            -13.3665096651      -34.3133919115       24.3164954129  TIP3      267             0.0000000000
     25717       467  TIP3      H2            -14.5182090499      -33.6263484079       23.5309793039  TIP3      267             0.0000000000
     25718       468  TIP3      OH2            -8.3440329974      -36.7491679626       30.8727099930  TIP3      268             0.0000000000
     25719       468  TIP3      H1             -9.0179945905      -36.6721152374       31.5851024822  TIP3      268             0.0000000000
     25720       468  TIP3      H2             -8.8578365552      -37.0162201379       30.1053678735  TIP3      268             0.0000000000
     25721       469  TIP3      OH2           -15.5487797893      -33.0888750977       21.6521330380  TIP3      269             0.0000000000
     25722       469  TIP3      H1            -16.1712020004      -33.5558320632       21.0850691257  TIP3      269             0.0000000000
     25723       469  TIP3      H2            -14.6608562555      -33.1590584480       21.3032764332  TIP3      269             0.0000000000
     25724       470  TIP3      OH2            -5.1442687885      -21.0750238549       37.2166157194  TIP3      270             0.0000000000
     25725       470  TIP3      H1             -4.8773227673      -20.6919873634       36.3620198967  TIP3      270             0.0000000000
     25726       470  TIP3      H2             -4.4198234778      -20.7551198011       37.7759163141  TIP3      270             0.0000000000
     25727       471  TIP3      OH2           -17.4718508793      -28.5667006791       36.7829292825  TIP3      271             0.0000000000
     25728       471  TIP3      H1            -16.7436971425      -28.3688835705       37.3911524388  TIP3      271             0.0000000000
     25729       471  TIP3      H2            -18.2439214332      -28.5398583500       37.3876752840  TIP3      271             0.0000000000
     25730       472  TIP3      OH2           -11.4626010540      -33.2034535110       29.5383561805  TIP3      272             0.0000000000
     25731       472  TIP3      H1            -10.8594570021      -33.7455940057       29.0131001917  TIP3      272             0.0000000000
     25732       472  TIP3      H2            -11.6137752454      -33.7439513540       30.3250983889  TIP3      272             0.0000000000
     25733       473  TIP3      OH2           -16.4999721827      -37.0724367085       25.9341510002  TIP3      273             0.0000000000
     25734       473  TIP3      H1            -16.7693342697      -38.0020617526       25.9756515777  TIP3      273             0.0000000000
     25735       473  TIP3      H2            -15.6477732157      -37.1395596539       25.4710466402  TIP3      273             0.0000000000
     25736       474  TIP3      OH2           -12.8218144808      -34.8664798292       31.9619853530  TIP3      274             0.0000000000
     25737       474  TIP3      H1            -13.6545090408      -34.3547039960       32.0384595740  TIP3      274             0.0000000000
     25738       474  TIP3      H2            -12.2609058518      -34.5203084121       32.6754754377  TIP3      274             0.0000000000
     25739       475  TIP3      OH2           -12.2668392908      -28.5769153927       23.6676352197  TIP3      275             0.0000000000
     25740       475  TIP3      H1            -13.0107591003      -29.1087352515       23.3166306235  TIP3      275             0.0000000000
     25741       475  TIP3      H2            -12.4543945779      -28.5207669842       24.6214479535  TIP3      275             0.0000000000
     25742       476  TIP3      OH2            -5.0498295605      -29.4405313406       32.4589269812  TIP3      276             0.0000000000
     25743       476  TIP3      H1             -4.4887310574      -28.9578420920       31.8246294836  TIP3      276             0.0000000000
     25744       476  TIP3      H2             -5.9106890818      -29.3985348563       31.9954001126  TIP3      276             0.0000000000
     25745       477  TIP3      OH2            -8.4373022506      -35.9021598047       21.9562288999  TIP3      277             0.0000000000
     25746       477  TIP3      H1             -9.3299106510      -35.7059376711       21.6662176946  TIP3      277             0.0000000000
     25747       477  TIP3      H2             -8.0779388005      -35.0032444154       22.1142997604  TIP3      277             0.0000000000
     25748       478  TIP3      OH2           -10.7467177724      -28.3653413023       34.8941939773  TIP3      278             0.0000000000
     25749       478  TIP3      H1            -11.0820945869      -28.7841053642       35.6899037132  TIP3      278             0.0000000000
     25750       478  TIP3      H2            -11.0018063198      -27.4439307362       35.0018423456  TIP3      278             0.0000000000
     25751       479  TIP3      OH2            -7.6370559301      -33.9320719359       23.5188186676  TIP3      279             0.0000000000
     25752       479  TIP3      H1             -6.7319280097      -34.0347448450       23.8576801899  TIP3      279             0.0000000000
     25753       479  TIP3      H2             -7.5942986081      -33.1259774859       22.9759189421  TIP3      279             0.0000000000
     25754       480  TIP3      OH2           -17.0462537120      -29.2194732987       29.4955615185  TIP3      280             0.0000000000
     25755       480  TIP3      H1            -16.5002750706      -29.4211695019       28.7242029194  TIP3      280             0.0000000000
     25756       480  TIP3      H2            -17.1098548988      -30.0999290842       29.9104216778  TIP3      280             0.0000000000
     25757       481  TIP3      OH2           -10.1620933196      -27.1629427513       22.7150829492  TIP3      281             0.0000000000
     25758       481  TIP3      H1            -10.4465571030      -26.3513695848       23.1198399072  TIP3      281             0.0000000000
     25759       481  TIP3      H2            -10.8731554867      -27.8154135734       22.8865411872  TIP3      281             0.0000000000
     25760       482  TIP3      OH2           -20.1396469932      -30.8453781123       34.7146963933  TIP3      282             0.0000000000
     25761       482  TIP3      H1            -19.9683664919      -31.2921987501       35.5665848923  TIP3      282             0.0000000000
     25762       482  TIP3      H2            -20.7616376947      -31.4556301523       34.2761866559  TIP3      282             0.0000000000
     25763       483  TIP3      OH2           -13.1302052417      -31.3547214614       36.9115186450  TIP3      283             0.0000000000
     25764       483  TIP3      H1            -13.4064215399      -31.4591735918       35.9805485283  TIP3      283             0.0000000000
     25765       483  TIP3      H2            -12.1538564317      -31.5052974361       36.8680995535  TIP3      283             0.0000000000
     25766       484  TIP3      OH2            -8.4415490278      -25.9528581927       34.8520909970  TIP3      284             0.0000000000
     25767       484  TIP3      H1             -9.3660201856      -25.7722350885       34.6163461353  TIP3      284             0.0000000000
     25768       484  TIP3      H2             -8.4741553829      -25.6554681900       35.7814292841  TIP3      284             0.0000000000
     25769       485  TIP3      OH2            -2.7848009653      -33.7612803709       23.2453325243  TIP3      285             0.0000000000
     25770       485  TIP3      H1             -3.3284962862      -34.1466788998       22.5245644535  TIP3      285             0.0000000000
     25771       485  TIP3      H2             -2.6853162678      -32.8306278615       22.9383885100  TIP3      285             0.0000000000
     25772       486  TIP3      OH2            -2.7861511466      -27.9079220179       36.0401847773  TIP3      286             0.0000000000
     25773       486  TIP3      H1             -3.6793446310      -27.6883063546       35.6759476380  TIP3      286             0.0000000000
     25774       486  TIP3      H2             -2.2407572158      -27.9615290030       35.2285933975  TIP3      286             0.0000000000
     25775       487  TIP3      OH2            -4.4542940579      -24.9723359294       23.6533642415  TIP3      287             0.0000000000
     25776       487  TIP3      H1             -4.8946696645      -25.7862443765       23.9168690453  TIP3      287             0.0000000000
     25777       487  TIP3      H2             -4.2079820141      -25.1439871008       22.7187291966  TIP3      287             0.0000000000
     25778       488  TIP3      OH2            -7.2722205311      -30.1271956498       30.7402245804  TIP3      288             0.0000000000
     25779       488  TIP3      H1             -8.2128800248      -30.3293603954       30.6183346460  TIP3      288             0.0000000000
     25780       488  TIP3      H2             -6.8423565626      -30.8858911186       30.3024814112  TIP3      288             0.0000000000
     25781       489  TIP3      OH2           -14.7622670885      -25.7510707773       26.7486013353  TIP3      289             0.0000000000
     25782       489  TIP3      H1            -14.2799787037      -24.9055884784       26.6027218350  TIP3      289             0.0000000000
     25783       489  TIP3      H2            -15.6448094799      -25.4553305902       26.4510824853  TIP3      289             0.0000000000
     25784       490  TIP3      OH2           -13.2683535789      -28.0976533575       26.4218188167  TIP3      290             0.0000000000
     25785       490  TIP3      H1            -13.6279223752      -27.1942170332       26.3258656507  TIP3      290             0.0000000000
     25786       490  TIP3      H2            -14.0037706602      -28.6992852990       26.6707845110  TIP3      290             0.0000000000
     25787       491  TIP3      OH2           -12.9002230351      -23.9436642878       32.7716631081  TIP3      291             0.0000000000
     25788       491  TIP3      H1            -12.4341472954      -23.1426115086       32.4817971944  TIP3      291             0.0000000000
     25789       491  TIP3      H2            -12.2681597046      -24.2949038485       33.4255220822  TIP3      291             0.0000000000
     25790       492  TIP3      OH2           -14.6585800716      -23.1715208686       25.9560342265  TIP3      292             0.0000000000
     25791       492  TIP3      H1            -15.6190484026      -22.9801115944       26.0327381639  TIP3      292             0.0000000000
     25792       492  TIP3      H2            -14.2932609900      -22.2989344434       26.2072594062  TIP3      292             0.0000000000
     25793       493  TIP3      OH2            -9.3745796746      -27.9521979094       32.3789474832  TIP3      293             0.0000000000
     25794       493  TIP3      H1             -9.6886460438      -28.1304929546       33.2892041142  TIP3      293             0.0000000000
     25795       493  TIP3      H2             -8.7289859563      -28.6595199247       32.2186221437  TIP3      293             0.0000000000
     25796       494  TIP3      OH2            -6.5465290060      -23.3673703418       34.8726811554  TIP3      294             0.0000000000
     25797       494  TIP3      H1             -7.2410165242      -23.8597702773       34.3957333974  TIP3      294             0.0000000000
     25798       494  TIP3      H2             -6.3661704235      -22.6662755856       34.2115648728  TIP3      294             0.0000000000
     25799       495  TIP3      OH2            -2.5168783870      -22.5023411587       21.7997172958  TIP3      295             0.0000000000
     25800       495  TIP3      H1             -1.8987850412      -21.8424189777       21.4516325150  TIP3      295             0.0000000000
     25801       495  TIP3      H2             -3.2816234271      -21.9282634211       22.0168524808  TIP3      295             0.0000000000
     25802       496  TIP3      OH2           -18.5092849516      -36.1433739798       34.2404739608  TIP3      296             0.0000000000
     25803       496  TIP3      H1            -19.4038634122      -35.7665330797       34.2523379679  TIP3      296             0.0000000000
     25804       496  TIP3      H2            -18.6165182833      -36.9672076864       34.7497106291  TIP3      296             0.0000000000
     25805       497  TIP3      OH2            -6.2351532304      -28.2351100876       23.8041112433  TIP3      297             0.0000000000
     25806       497  TIP3      H1             -6.4846283822      -29.0521818071       24.2677906541  TIP3      297             0.0000000000
     25807       497  TIP3      H2             -5.2742658114      -28.2140446977       23.9017516977  TIP3      297             0.0000000000
     25808       498  TIP3      OH2           -18.8836957516      -24.3464516741       32.6854063454  TIP3      298             0.0000000000
     25809       498  TIP3      H1            -18.5468623191      -25.2531989086       32.7100633043  TIP3      298             0.0000000000
     25810       498  TIP3      H2            -18.6053563461      -24.0326135335       33.5594390536  TIP3      298             0.0000000000
     25811       499  TIP3      OH2           -17.5632033976      -29.0452638350       22.7125228677  TIP3      299             0.0000000000
     25812       499  TIP3      H1            -18.2064497568      -28.7691077778       23.4055184102  TIP3      299             0.0000000000
     25813       499  TIP3      H2            -17.1308728071      -28.1952473272       22.5940499318  TIP3      299             0.0000000000
     25814       500  TIP3      OH2            -9.7497547542      -36.3333471191       33.2372715404  TIP3      300             0.0000000000
     25815       500  TIP3      H1             -9.0255939529      -36.3175204073       33.8761216264  TIP3      300             0.0000000000
     25816       500  TIP3      H2            -10.1645806670      -37.2090437960       33.4232414028  TIP3      300             0.0000000000
     25817       501  TIP3      OH2            -8.9088562882      -36.8526656499       24.4069146047  TIP3      301             0.0000000000
     25818       501  TIP3      H1             -8.8551600416      -36.3372076944       23.5515002018  TIP3      301             0.0000000000
     25819       501  TIP3      H2             -8.4034571988      -36.2255095300       24.9550551644  TIP3      301             0.0000000000
     25820       502  TIP3      OH2           -11.7499292522      -35.0716680542       25.1632047006  TIP3      302             0.0000000000
     25821       502  TIP3      H1            -11.0104863052      -34.4291811006       25.1583170232  TIP3      302             0.0000000000
     25822       502  TIP3      H2            -12.0574417392      -35.0979165465       26.0876059843  TIP3      302             0.0000000000
     25823       503  TIP3      OH2           -11.2439598223      -34.0132113972       34.3611666491  TIP3      303             0.0000000000
     25824       503  TIP3      H1            -11.0627010733      -33.4159354846       35.1073582795  TIP3      303             0.0000000000
     25825       503  TIP3      H2            -10.5579119943      -34.6990067354       34.3838823940  TIP3      303             0.0000000000
     25826       504  TIP3      OH2           -10.9088916469      -37.9457409485       26.0975529044  TIP3      304             0.0000000000
     25827       504  TIP3      H1            -11.3253877422      -37.2733673374       26.6727700238  TIP3      304             0.0000000000
     25828       504  TIP3      H2            -10.3458644863      -37.3538062319       25.5334454512  TIP3      304             0.0000000000
     25829       505  TIP3      OH2            -5.0401531413      -36.0935333584       35.1544756128  TIP3      305             0.0000000000
     25830       505  TIP3      H1             -5.9845402348      -35.8337626330       35.0379715777  TIP3      305             0.0000000000
     25831       505  TIP3      H2             -4.7664039661      -36.1565896741       34.2220111282  TIP3      305             0.0000000000
     25832       506  TIP3      OH2            -6.4342601899      -32.3394931457       29.1784385352  TIP3      306             0.0000000000
     25833       506  TIP3      H1             -7.2646394313      -32.7794572384       28.9040472201  TIP3      306             0.0000000000
     25834       506  TIP3      H2             -5.9559815761      -33.0346086762       29.6883949409  TIP3      306             0.0000000000
     25835       507  TIP3      OH2           -16.9839609855      -26.4272199010       21.8267472343  TIP3      307             0.0000000000
     25836       507  TIP3      H1            -16.4062048265      -25.7158800852       22.0717926946  TIP3      307             0.0000000000
     25837       507  TIP3      H2            -16.5572893089      -26.8679888393       21.0656057745  TIP3      307             0.0000000000
     25838       508  TIP3      OH2            -5.3752234711      -23.0724359215       30.8494936729  TIP3      308             0.0000000000
     25839       508  TIP3      H1             -5.4616791809      -22.3943679873       30.1530223314  TIP3      308             0.0000000000
     25840       508  TIP3      H2             -4.4099453975      -23.0237448871       31.0226970314  TIP3      308             0.0000000000
     25841       509  TIP3      OH2           -17.8542304532      -38.8165963032       29.6356705800  TIP3      309             0.0000000000
     25842       509  TIP3      H1            -18.0443359388      -38.8532468785       28.6665850331  TIP3      309             0.0000000000
     25843       509  TIP3      H2            -18.1380132294      -39.7033603162       29.8257335989  TIP3      309             0.0000000000
     25844       510  TIP3      OH2           -18.9257045475      -24.9552247939       25.8544832284  TIP3      310             0.0000000000
     25845       510  TIP3      H1            -19.8016433555      -24.5827526800       25.7200276587  TIP3      310             0.0000000000
     25846       510  TIP3      H2            -18.4590616089      -24.5972442027       25.0875220819  TIP3      310             0.0000000000
     25847       511  TIP3      OH2           -19.7311400659      -22.3833994826       37.0758450539  TIP3      311             0.0000000000
     25848       511  TIP3      H1            -19.1309152391      -22.5769384492       37.8151006094  TIP3      311             0.0000000000
     25849       511  TIP3      H2            -20.1315923731      -23.2509374914       36.8873762519  TIP3      311             0.0000000000
     25850       512  TIP3      OH2           -15.1189193442      -23.5501645894       38.7325510571  TIP3      312             0.0000000000
     25851       512  TIP3      H1            -14.2642585913      -23.9317774261       39.0084169851  TIP3      312             0.0000000000
     25852       512  TIP3      H2            -15.0582471596      -23.7181054992       37.7654708347  TIP3      312             0.0000000000
     25853       513  TIP3      OH2            -8.5395341934      -25.0795593461       37.4443412998  TIP3      313             0.0000000000
     25854       513  TIP3      H1             -8.8530126966      -25.9675094805       37.7178777049  TIP3      313             0.0000000000
     25855       513  TIP3      H2             -7.7678539653      -24.9611622007       38.0332675722  TIP3      313             0.0000000000
     25856       514  TIP3      OH2           -19.8070708613      -28.5885074414       38.0887871642  TIP3      314             0.0000000000
     25857       514  TIP3      H1            -19.6390738454      -29.5046244546       37.7950031192  TIP3      314             0.0000000000
     25858       514  TIP3      H2            -20.5536133292      -28.3572315479       37.5087278452  TIP3      314             0.0000000000
     25859       515  TIP3      OH2           -15.3647425972      -28.1935675086       20.1928850273  TIP3      315             0.0000000000
     25860       515  TIP3      H1            -15.3410627186      -28.9428400408       20.7697703241  TIP3      315             0.0000000000
     25861       515  TIP3      H2            -14.7511699193      -28.3712692603       19.4705065705  TIP3      315             0.0000000000
     25862       516  TIP3      OH2           -13.0992983293      -28.6293178818       37.4652685338  TIP3      316             0.0000000000
     25863       516  TIP3      H1            -13.4292174597      -28.2891808884       36.6081276589  TIP3      316             0.0000000000
     25864       516  TIP3      H2            -13.0133721526      -29.5936956431       37.3477597283  TIP3      316             0.0000000000
     25865       517  TIP3      OH2            -7.4049923952      -28.7696324026       34.8582974703  TIP3      317             0.0000000000
     25866       517  TIP3      H1             -6.6148545704      -28.1879572883       34.7981530324  TIP3      317             0.0000000000
     25867       517  TIP3      H2             -8.0997432480      -28.0965329740       34.8938943626  TIP3      317             0.0000000000
     25868       518  TIP3      OH2           -18.8494609063      -31.3765730457       37.4675945411  TIP3      318             0.0000000000
     25869       518  TIP3      H1            -18.4970474094      -32.2621922960       37.3698091248  TIP3      318             0.0000000000
     25870       518  TIP3      H2            -19.1206785450      -31.3784713104       38.3996987287  TIP3      318             0.0000000000
     25871       519  TIP3      OH2           -14.2787488371      -30.3081408045       22.4472597939  TIP3      319             0.0000000000
     25872       519  TIP3      H1            -14.7519873133      -30.7408652799       23.2002010025  TIP3      319             0.0000000000
     25873       519  TIP3      H2            -13.7291866293      -30.9704770149       22.0351841547  TIP3      319             0.0000000000
     25874       520  TIP3      OH2           -14.9295510721      -32.4246715242       34.8836627277  TIP3      320             0.0000000000
     25875       520  TIP3      H1            -15.6050159773      -31.7389960691       35.0546829400  TIP3      320             0.0000000000
     25876       520  TIP3      H2            -14.6162511342      -32.0969725534       34.0117115112  TIP3      320             0.0000000000
     25877       521  TIP3      OH2            -9.9220645876      -29.8971976023       38.1270723164  TIP3      321             0.0000000000
     25878       521  TIP3      H1             -8.9557243848      -29.8473900018       38.0403756556  TIP3      321             0.0000000000
     25879       521  TIP3      H2            -10.0588486921      -30.6320917915       38.7413960965  TIP3      321             0.0000000000
     25880       522  TIP3      OH2            -3.6881363108      -29.8927801043       20.1270980823  TIP3      322             0.0000000000
     25881       522  TIP3      H1             -4.0886013602      -30.1824914595       19.3278967342  TIP3      322             0.0000000000
     25882       522  TIP3      H2             -3.6862375604      -28.9255446302       20.0674746054  TIP3      322             0.0000000000
     25883       523  TIP3      OH2           -14.5532073450      -35.0388613047       35.8414321190  TIP3      323             0.0000000000
     25884       523  TIP3      H1            -14.4795789457      -35.7871607079       35.2072252936  TIP3      323             0.0000000000
     25885       523  TIP3      H2            -14.7048587570      -34.3047522656       35.2107141611  TIP3      323             0.0000000000
     25886       524  TIP3      OH2           -14.1960591484      -36.5837653714       33.4470360873  TIP3      324             0.0000000000
     25887       524  TIP3      H1            -13.6607063381      -36.2293933571       32.6912889316  TIP3      324             0.0000000000
     25888       524  TIP3      H2            -15.0631404859      -36.7795225102       33.0113220282  TIP3      324             0.0000000000
     25889       525  TIP3      OH2           -12.6305906601      -31.1836882651       33.6844561234  TIP3      325             0.0000000000
     25890       525  TIP3      H1            -11.8910095770      -31.3495983611       33.0857376971  TIP3      325             0.0000000000
     25891       525  TIP3      H2            -13.0075354538      -30.3633270347       33.3238991442  TIP3      325             0.0000000000
     25892       526  TIP3      OH2            -8.2657496660      -33.4440386632       38.6249615406  TIP3      326             0.0000000000
     25893       526  TIP3      H1             -7.9890593255      -34.3673032294       38.5270789745  TIP3      326             0.0000000000
     25894       526  TIP3      H2             -7.4063116144      -32.9882397425       38.6639739362  TIP3      326             0.0000000000
     25895       527  TIP3      OH2            -6.9097520926      -30.6376655442       36.8002979385  TIP3      327             0.0000000000
     25896       527  TIP3      H1             -7.1602567867      -29.9199361603       36.1778659547  TIP3      327             0.0000000000
     25897       527  TIP3      H2             -5.9536174583      -30.6694012179       36.6125699284  TIP3      327             0.0000000000
     25898       528  TIP3      OH2           -16.0967453933      -33.8195604748       37.7922380520  TIP3      328             0.0000000000
     25899       528  TIP3      H1            -16.9165048052      -34.3597005260       37.6765047227  TIP3      328             0.0000000000
     25900       528  TIP3      H2            -15.5599517509      -34.2369291476       37.1166093984  TIP3      328             0.0000000000
     25901       529  TIP3      OH2           -13.3287798554      -39.0616973074       33.8646901584  TIP3      329             0.0000000000
     25902       529  TIP3      H1            -13.5617114937      -38.1188499653       33.7404808620  TIP3      329             0.0000000000
     25903       529  TIP3      H2            -14.1055858189      -39.4870211860       33.4851508206  TIP3      329             0.0000000000
     25904       530  TIP3      OH2           -12.0402991993      -35.0199801946       37.4865895448  TIP3      330             0.0000000000
     25905       530  TIP3      H1            -12.3143667657      -35.3181529860       38.3870679273  TIP3      330             0.0000000000
     25906       530  TIP3      H2            -12.7224780768      -35.4147898893       36.9189144169  TIP3      330             0.0000000000
     25907       531  TIP3      OH2            -9.3984282277      -35.7609014889       36.5570060600  TIP3      331             0.0000000000
     25908       531  TIP3      H1            -10.3630516198      -35.7543003442       36.6441458371  TIP3      331             0.0000000000
     25909       531  TIP3      H2             -9.1275902424      -36.4315025642       37.2121828548  TIP3      331             0.0000000000
     25910       532  TIP3      OH2            -7.8351780884      -36.9468683563       38.4679857948  TIP3      332             0.0000000000
     25911       532  TIP3      H1             -7.8199017369      -37.9381342102       38.4219572140  TIP3      332             0.0000000000
     25912       532  TIP3      H2             -8.0916824175      -36.8005026648       39.3918036536  TIP3      332             0.0000000000
     25913       533  TIP3      OH2           -17.9699658138      -35.9011872216       37.5691610311  TIP3      333             0.0000000000
     25914       533  TIP3      H1            -17.8599603398      -36.6679092199       36.9665825352  TIP3      333             0.0000000000
     25915       533  TIP3      H2            -18.1476589127      -36.3552089663       38.4147727409  TIP3      333             0.0000000000
     25916       534  TIP3      OH2           -13.2031755490       39.8543513873       36.5332223289  TIP3      334             0.0000000000
     25917       534  TIP3      H1            -12.4669882499       39.2326526911       36.5112291593  TIP3      334             0.0000000000
     25918       534  TIP3      H2            -13.2721258722       40.1226294244       35.5936583746  TIP3      334             0.0000000000
     25919       535  TIP3      OH2           -12.7446139740      -38.1327959561       38.5483111281  TIP3      335             0.0000000000
     25920       535  TIP3      H1            -12.9840912228      -38.7729771511       37.8424738115  TIP3      335             0.0000000000
     25921       535  TIP3      H2            -13.4455041299      -37.4764570916       38.5282084787  TIP3      335             0.0000000000
     25922       536  TIP3      OH2           -21.0323333330      -21.3641041632       26.2526861776  TIP3      336             0.0000000000
     25923       536  TIP3      H1            -21.7340502946      -21.8454278460       25.7626805566  TIP3      336             0.0000000000
     25924       536  TIP3      H2            -20.7281750170      -22.0199224642       26.9002995181  TIP3      336             0.0000000000
     25925       537  TIP3      OH2           -20.2536862100      -23.2225421175       28.1398690414  TIP3      337             0.0000000000
     25926       537  TIP3      H1            -20.4761274854      -24.1400709744       28.3062259113  TIP3      337             0.0000000000
     25927       537  TIP3      H2            -19.9105993125      -22.9025185836       28.9985788066  TIP3      337             0.0000000000
     25928       538  TIP3      OH2            -2.6537410216      -22.4329362267       31.0453692586  TIP3      338             0.0000000000
     25929       538  TIP3      H1             -2.6232305381      -22.2727296495       32.0045381260  TIP3      338             0.0000000000
     25930       538  TIP3      H2             -1.9503380781      -21.8496482868       30.7424059491  TIP3      338             0.0000000000
     25931       539  TIP3      OH2            -3.0824773568      -22.8360204570       33.9938387964  TIP3      339             0.0000000000
     25932       539  TIP3      H1             -3.5520770462      -23.6074150128       33.6099028258  TIP3      339             0.0000000000
     25933       539  TIP3      H2             -2.5952766786      -23.2848075277       34.7047773441  TIP3      339             0.0000000000
     25934       540  TIP3      OH2            -4.6418945684      -27.1174456993       38.6656685248  TIP3      340             0.0000000000
     25935       540  TIP3      H1             -5.5468395541      -27.1429466498       39.0304301165  TIP3      340             0.0000000000
     25936       540  TIP3      H2             -4.2661341682      -26.3134385707       39.0734031466  TIP3      340             0.0000000000
     25937       541  TIP3      OH2            -3.2904524345      -28.8325880215       24.0839798792  TIP3      341             0.0000000000
     25938       541  TIP3      H1             -2.4447245366      -28.3988549639       24.2888186026  TIP3      341             0.0000000000
     25939       541  TIP3      H2             -3.3141191718      -29.5156843084       24.7850266634  TIP3      341             0.0000000000
     25940       542  TIP3      OH2            -2.9458690465      -30.7167216937       25.9767399432  TIP3      342             0.0000000000
     25941       542  TIP3      H1             -3.7061554661      -31.2067087477       26.3580305705  TIP3      342             0.0000000000
     25942       542  TIP3      H2             -2.3659792864      -30.5766575796       26.7486492115  TIP3      342             0.0000000000
     25943       543  TIP3      OH2            -3.2049660287      -28.0181257545       30.9674075243  TIP3      343             0.0000000000
     25944       543  TIP3      H1             -2.3904677253      -28.3931121374       30.5895688139  TIP3      343             0.0000000000
     25945       543  TIP3      H2             -3.0595447944      -27.0633981508       30.7982162620  TIP3      343             0.0000000000
     25946       544  TIP3      OH2            -4.6447613174      -25.1062217613       33.2337989990  TIP3      344             0.0000000000
     25947       544  TIP3      H1             -5.3345953755      -24.7680445725       33.8224075328  TIP3      344             0.0000000000
     25948       544  TIP3      H2             -5.1915055460      -25.5104591082       32.5260253246  TIP3      344             0.0000000000
     25949       545  TIP3      OH2            -2.6702538243      -30.9325253605       22.3589054221  TIP3      345             0.0000000000
     25950       545  TIP3      H1             -3.1996015691      -30.5119367327       21.6529846593  TIP3      345             0.0000000000
     25951       545  TIP3      H2             -2.6819448736      -30.2124261390       23.0158989170  TIP3      345             0.0000000000
     25952       546  TIP3      OH2            -5.1392744298      -32.2428732929       26.5310386431  TIP3      346             0.0000000000
     25953       546  TIP3      H1             -5.2840712104      -33.2004122441       26.5006993809  TIP3      346             0.0000000000
     25954       546  TIP3      H2             -5.4732713088      -32.0236979921       27.4208213693  TIP3      346             0.0000000000
     25955       547  TIP3      OH2           -20.1410519266      -30.1583416933       30.6225915565  TIP3      347             0.0000000000
     25956       547  TIP3      H1            -19.9769005846      -30.2364506965       29.6546067343  TIP3      347             0.0000000000
     25957       547  TIP3      H2            -19.2443403714      -30.3390913425       30.9588544400  TIP3      347             0.0000000000
     25958       548  TIP3      OH2            -4.2853839333      -30.2685239602       36.2520243429  TIP3      348             0.0000000000
     25959       548  TIP3      H1             -3.6730313406      -31.0266612628       36.3740227892  TIP3      348             0.0000000000
     25960       548  TIP3      H2             -3.6796093848      -29.4989032389       36.2451125067  TIP3      348             0.0000000000
     25961       549  TIP3      OH2            -2.7720094952      -32.4000108281       36.8899108649  TIP3      349             0.0000000000
     25962       549  TIP3      H1             -3.6599677145      -32.7879938322       36.7372434596  TIP3      349             0.0000000000
     25963       549  TIP3      H2             -2.2038694313      -33.1869667390       36.8138689607  TIP3      349             0.0000000000
     25964       550  TIP3      OH2            -5.4575809091      -34.6325674888       25.0246223516  TIP3      350             0.0000000000
     25965       550  TIP3      H1             -5.1589876210      -35.5578768907       25.1351366289  TIP3      350             0.0000000000
     25966       550  TIP3      H2             -4.6771025938      -34.2536931670       24.5990603769  TIP3      350             0.0000000000
     25967       551  TIP3      OH2            -4.8391715509      -34.0872857669       30.4434259351  TIP3      351             0.0000000000
     25968       551  TIP3      H1             -3.8729253166      -33.8942045074       30.4387158247  TIP3      351             0.0000000000
     25969       551  TIP3      H2             -5.0270911720      -34.0004293031       31.3903859722  TIP3      351             0.0000000000
     25970       552  TIP3      OH2            -4.7713595443      -33.3781796536       33.2318251303  TIP3      352             0.0000000000
     25971       552  TIP3      H1             -5.6553595401      -33.0890198485       33.5446279772  TIP3      352             0.0000000000
     25972       552  TIP3      H2             -4.3332079298      -32.5207431441       33.0095455810  TIP3      352             0.0000000000
     25973       553  TIP3      OH2           -20.4777413226      -34.8667477403       36.7581591509  TIP3      353             0.0000000000
     25974       553  TIP3      H1            -19.5506582204      -35.1008751888       36.9591525227  TIP3      353             0.0000000000
     25975       553  TIP3      H2            -20.9603704687      -35.6803693307       37.0180775553  TIP3      353             0.0000000000
     25976       554  TIP3      OH2            -2.2804256258      -39.2541579875       38.6428741213  TIP3      354             0.0000000000
     25977       554  TIP3      H1             -2.2304004050      -40.0008976905       38.0093634564  TIP3      354             0.0000000000
     25978       554  TIP3      H2             -2.4064685427      -38.4942126069       38.0368555581  TIP3      354             0.0000000000
     25979       555  TIP3      OH2            -4.8357283069      -37.3423213840       25.0482700314  TIP3      355             0.0000000000
     25980       555  TIP3      H1             -4.5699886999      -37.7988233576       25.8768656521  TIP3      355             0.0000000000
     25981       555  TIP3      H2             -5.4041950904      -38.0114409650       24.6145856236  TIP3      355             0.0000000000
     25982       556  TIP3      OH2           -19.3266760741      -36.5554741645       29.6028775432  TIP3      356             0.0000000000
     25983       556  TIP3      H1            -18.8655475850      -37.3632678816       29.9005306143  TIP3      356             0.0000000000
     25984       556  TIP3      H2            -18.7652433678      -35.8616308865       29.9735056332  TIP3      356             0.0000000000
     25985       557  TIP3      OH2           -21.0359275651      -33.5561215361       30.6517285857  TIP3      357             0.0000000000
     25986       557  TIP3      H1            -20.4709832582      -33.8103109938       29.8928905050  TIP3      357             0.0000000000
     25987       557  TIP3      H2            -20.5675283394      -32.7556880612       30.9193567702  TIP3      357             0.0000000000
     25988       558  TIP3      OH2            -2.9586602641      -37.2949744256       36.9093702224  TIP3      358             0.0000000000
     25989       558  TIP3      H1             -3.8828648064      -36.9740644714       36.8944768493  TIP3      358             0.0000000000
     25990       558  TIP3      H2             -2.9811352289      -37.8070940419       36.0909380660  TIP3      358             0.0000000000
     25991       559  TIP3      OH2           -20.6167420289      -37.2686704530       24.7290124375  TIP3      359             0.0000000000
     25992       559  TIP3      H1            -21.5796869733      -37.1285118943       24.6241468423  TIP3      359             0.0000000000
     25993       559  TIP3      H2            -20.2802233809      -36.8137334381       23.9665145500  TIP3      359             0.0000000000
     25994       560  TIP3      OH2            -5.9259886615      -22.3581427171       26.6777035918  TIP3      360             0.0000000000
     25995       560  TIP3      H1             -5.2469352371      -22.6540553045       26.0452438613  TIP3      360             0.0000000000
     25996       560  TIP3      H2             -5.4115402055      -21.8512391047       27.3245252784  TIP3      360             0.0000000000
     25997       561  TIP3      OH2           -20.6940740891      -38.6295531042       32.9322633037  TIP3      361             0.0000000000
     25998       561  TIP3      H1            -21.2955650049      -38.7237533748       33.7005970584  TIP3      361             0.0000000000
     25999       561  TIP3      H2            -21.1587437378      -37.9335429878       32.4260357496  TIP3      361             0.0000000000
     26000       562  TIP3      OH2           -18.4747443335      -25.3940308680       37.2130186057  TIP3      362             0.0000000000
     26001       562  TIP3      H1            -19.3044945631      -25.2335413967       36.7274594910  TIP3      362             0.0000000000
     26002       562  TIP3      H2            -18.8127644321      -25.5776123406       38.0837089538  TIP3      362             0.0000000000
     26003       563  TIP3      OH2           -15.5924979778      -24.4458405996       33.4548369245  TIP3      363             0.0000000000
     26004       563  TIP3      H1            -15.9136176129      -23.5724000865       33.1930781322  TIP3      363             0.0000000000
     26005       563  TIP3      H2            -14.6618528381      -24.3582190891       33.1553142417  TIP3      363             0.0000000000
     26006       564  TIP3      OH2           -11.2629098888      -23.0266570841       36.3611747501  TIP3      364             0.0000000000
     26007       564  TIP3      H1            -11.1239208813      -23.3727474656       37.2718776565  TIP3      364             0.0000000000
     26008       564  TIP3      H2            -10.3607323587      -22.7159793341       36.1216018971  TIP3      364             0.0000000000
     26009       565  TIP3      OH2            -8.9740971592      -21.7514152022       35.6742034336  TIP3      365             0.0000000000
     26010       565  TIP3      H1             -8.2424900698      -22.3337715011       35.4358903864  TIP3      365             0.0000000000
     26011       565  TIP3      H2             -8.5993753503      -21.3112401527       36.4683467313  TIP3      365             0.0000000000
     26012       566  TIP3      OH2            -3.7438661859      -38.9244675447       34.5797592634  TIP3      366             0.0000000000
     26013       566  TIP3      H1             -4.6913135880      -38.7303550402       34.4097001569  TIP3      366             0.0000000000
     26014       566  TIP3      H2             -3.6810924531      -39.8583879278       34.3534598621  TIP3      366             0.0000000000
     26015       567  TIP3      OH2           -18.1586423436      -21.2082973716       33.4517143335  TIP3      367             0.0000000000
     26016       567  TIP3      H1            -18.8905429154      -20.7044008791       33.0593385466  TIP3      367             0.0000000000
     26017       567  TIP3      H2            -18.4642313737      -21.3918593126       34.3525628373  TIP3      367             0.0000000000
     26018       568  TIP3      OH2           -15.6909307482      -21.6276053396       32.5250451076  TIP3      368             0.0000000000
     26019       568  TIP3      H1            -16.5811944877      -21.4696443318       32.9187508410  TIP3      368             0.0000000000
     26020       568  TIP3      H2            -15.7375575468      -21.0289384318       31.7556049654  TIP3      368             0.0000000000
     26021       569  TIP3      OH2           -10.9871278828      -21.7100752957       31.6923052837  TIP3      369             0.0000000000
     26022       569  TIP3      H1            -11.4430153194      -21.1486064119       31.0484809422  TIP3      369             0.0000000000
     26023       569  TIP3      H2            -10.8503104872      -21.0807524900       32.4348048677  TIP3      369             0.0000000000
     26024       570  TIP3      OH2            -8.6963975465      -22.9086231400       32.7297007473  TIP3      370             0.0000000000
     26025       570  TIP3      H1             -9.5473278734      -22.6286040946       32.3554198878  TIP3      370             0.0000000000
     26026       570  TIP3      H2             -8.2072910284      -22.0727566902       32.6353650517  TIP3      370             0.0000000000
     26027       571  TIP3      OH2            -6.1120053124      -21.3370125257       32.9453249905  TIP3      371             0.0000000000
     26028       571  TIP3      H1             -6.1630615791      -20.3775248841       32.7180509039  TIP3      371             0.0000000000
     26029       571  TIP3      H2             -5.8945655602      -21.7118260319       32.0682717469  TIP3      371             0.0000000000
     26030       572  TIP3      OH2           -18.7358935522      -22.5931869378       30.3839899995  TIP3      372             0.0000000000
     26031       572  TIP3      H1            -18.7608071061      -23.0165242804       31.2684175642  TIP3      372             0.0000000000
     26032       572  TIP3      H2            -17.8823754497      -22.9009503837       30.0162257603  TIP3      372             0.0000000000
     26033       573  TIP3      OH2           -16.6239976651      -23.8675068241       29.0344364136  TIP3      373             0.0000000000
     26034       573  TIP3      H1            -16.8107383245      -24.7814609799       29.3129643412  TIP3      373             0.0000000000
     26035       573  TIP3      H2            -15.7772967686      -23.6748017853       29.4983314361  TIP3      373             0.0000000000
     26036       574  TIP3      OH2           -14.0444874281      -23.3737029997       29.9378673292  TIP3      374             0.0000000000
     26037       574  TIP3      H1            -13.8456655726      -24.2829661516       29.6745900725  TIP3      374             0.0000000000
     26038       574  TIP3      H2            -13.9654892303      -23.4025730400       30.9023425500  TIP3      374             0.0000000000
     26039       575  TIP3      OH2           -10.6337005000      -37.6527442086       29.0318138837  TIP3      375             0.0000000000
     26040       575  TIP3      H1            -11.2190383888      -38.3230827721       29.4187276657  TIP3      375             0.0000000000
     26041       575  TIP3      H2             -9.9732538433      -38.2033139140       28.5857615895  TIP3      375             0.0000000000
     26042       576  TIP3      OH2            -5.4092915520      -38.7880671406       29.3827114527  TIP3      376             0.0000000000
     26043       576  TIP3      H1             -4.7440685091      -38.9261106660       28.6587660621  TIP3      376             0.0000000000
     26044       576  TIP3      H2             -6.2040823882      -39.2339641477       29.0512255676  TIP3      376             0.0000000000
     26045       577  TIP3      OH2            -3.7952629558      -38.4209282976       27.3238866382  TIP3      377             0.0000000000
     26046       577  TIP3      H1             -3.0883994263      -39.0336834243       27.0278121016  TIP3      377             0.0000000000
     26047       577  TIP3      H2             -3.2799469051      -37.5959252221       27.5087713660  TIP3      377             0.0000000000
     26048       578  TIP3      OH2           -18.2731674023      -39.1200278443       26.9519554085  TIP3      378             0.0000000000
     26049       578  TIP3      H1            -19.0090382301      -39.3165609325       26.3561041464  TIP3      378             0.0000000000
     26050       578  TIP3      H2            -17.7478421344      -39.9346635223       26.8400304405  TIP3      378             0.0000000000
     26051       579  TIP3      OH2           -19.3948598561      -39.3135981223       22.6495829054  TIP3      379             0.0000000000
     26052       579  TIP3      H1            -19.0129195727      -38.6928340826       22.0328875895  TIP3      379             0.0000000000
     26053       579  TIP3      H2            -20.0394694612      -38.7869133815       23.1577396327  TIP3      379             0.0000000000
     26054       580  TIP3      OH2           -13.8338410731      -38.7796290969       26.5656157333  TIP3      380             0.0000000000
     26055       580  TIP3      H1            -12.8745836006      -38.6944032365       26.5086638689  TIP3      380             0.0000000000
     26056       580  TIP3      H2            -13.8457878905      -39.2485674257       27.4016390533  TIP3      380             0.0000000000
     26057       581  TIP3      OH2            -8.3655680539      -39.0498754554       28.3905160616  TIP3      381             0.0000000000
     26058       581  TIP3      H1             -7.9236266007      -38.9771715430       27.5390588222  TIP3      381             0.0000000000
     26059       581  TIP3      H2             -8.2937011456      -40.0056809031       28.6033525138  TIP3      381             0.0000000000
     26060       582  TIP3      OH2            -6.7888851105      -39.0364410956       24.1044562683  TIP3      382             0.0000000000
     26061       582  TIP3      H1             -7.5042597171      -38.4607053457       23.7844815677  TIP3      382             0.0000000000
     26062       582  TIP3      H2             -7.0920646385      -39.9579866956       24.0815705385  TIP3      382             0.0000000000
     26063       583  TIP3      OH2           -19.4944113495      -23.3593846565       23.5931296150  TIP3      383             0.0000000000
     26064       583  TIP3      H1            -20.2030523283      -23.3698702824       22.9202526278  TIP3      383             0.0000000000
     26065       583  TIP3      H2            -19.5171758411      -22.4330868861       23.8482283245  TIP3      383             0.0000000000
     26066       584  TIP3      OH2           -12.6860946925      -37.1274318146       23.6328783404  TIP3      384             0.0000000000
     26067       584  TIP3      H1            -12.3371344777      -37.7114844493       24.3079593364  TIP3      384             0.0000000000
     26068       584  TIP3      H2            -12.5082211508      -36.2565045538       24.0389215089  TIP3      384             0.0000000000
     26069       585  TIP3      OH2           -10.6703092028      -22.0497245908       21.9220386081  TIP3      385             0.0000000000
     26070       585  TIP3      H1             -9.7131279853      -21.8516487351       21.8459359897  TIP3      385             0.0000000000
     26071       585  TIP3      H2            -10.8192735557      -22.5665824784       21.1362305315  TIP3      385             0.0000000000
     26072       586  TIP3      OH2            -3.9456997210      -22.5378744110       24.7007015376  TIP3      386             0.0000000000
     26073       586  TIP3      H1             -4.1247565183      -23.3391144615       24.1456840910  TIP3      386             0.0000000000
     26074       586  TIP3      H2             -4.0198517203      -21.8218745148       24.0314524312  TIP3      386             0.0000000000
     26075       587  TIP3      OH2           -18.3570473504      -38.3215478360       36.3511956850  TIP3      387             0.0000000000
     26076       587  TIP3      H1            -18.7165800570      -39.1649477830       36.7235030254  TIP3      387             0.0000000000
     26077       587  TIP3      H2            -17.4446778449      -38.5009765778       36.6512990046  TIP3      387             0.0000000000
     26078       588  TIP3      OH2           -16.1329637478      -39.0513673069       38.0890452446  TIP3      388             0.0000000000
     26079       588  TIP3      H1            -15.3791740954      -39.4277186962       37.6001121881  TIP3      388             0.0000000000
     26080       588  TIP3      H2            -16.6889732171      -39.8458698765       38.2561602983  TIP3      388             0.0000000000
     26081       589  TIP3      OH2            -7.7289187566       40.3608274735       38.1464116273  TIP3      389             0.0000000000
     26082       589  TIP3      H1             -7.8538823314       39.6525636531       38.8061157320  TIP3      389             0.0000000000
     26083       589  TIP3      H2             -6.9614071182       39.9770055866       37.6886860365  TIP3      389             0.0000000000
     26084       590  TIP3      OH2            -4.6951952533      -23.8218607319       36.7886233226  TIP3      390             0.0000000000
     26085       590  TIP3      H1             -5.4992162997      -23.9577329350       36.2414835177  TIP3      390             0.0000000000
     26086       590  TIP3      H2             -4.8117501527      -22.8750760293       37.0062671433  TIP3      390             0.0000000000
     26087       591  TIP3      OH2             9.6682785254      -29.9519039936       26.8391370514  TIP3      391             0.0000000000
     26088       591  TIP3      H1              9.7353577907      -28.9806638406       26.7350723326  TIP3      391             0.0000000000
     26089       591  TIP3      H2              9.0323654491      -30.1596147496       26.1412068725  TIP3      391             0.0000000000
     26090       592  TIP3      OH2             8.5890237274      -30.6982829863       30.2705443332  TIP3      392             0.0000000000
     26091       592  TIP3      H1              8.6060856358      -31.3299639212       31.0029955959  TIP3      392             0.0000000000
     26092       592  TIP3      H2              8.3023859378      -31.2083939161       29.5057065173  TIP3      392             0.0000000000
     26093       593  TIP3      OH2             0.9577697407      -31.0115266709       31.8220618397  TIP3      393             0.0000000000
     26094       593  TIP3      H1              1.0370251204      -31.7003936573       32.5158689890  TIP3      393             0.0000000000
     26095       593  TIP3      H2              1.7062171925      -30.4419125115       32.0487944708  TIP3      393             0.0000000000
     26096       594  TIP3      OH2            12.3867424133      -27.7809155204       28.6071378722  TIP3      394             0.0000000000
     26097       594  TIP3      H1             11.8229889330      -28.4327677193       29.0251487717  TIP3      394             0.0000000000
     26098       594  TIP3      H2             12.2865004395      -27.0237860825       29.2012614292  TIP3      394             0.0000000000
     26099       595  TIP3      OH2             1.8824259092      -26.5640962565       30.3212088055  TIP3      395             0.0000000000
     26100       595  TIP3      H1              1.5731707983      -27.4348176374       30.0057453702  TIP3      395             0.0000000000
     26101       595  TIP3      H2              2.8378922007      -26.7475122638       30.3677829858  TIP3      395             0.0000000000
     26102       596  TIP3      OH2            -1.4639794959      -33.0019246874       25.8105367614  TIP3      396             0.0000000000
     26103       596  TIP3      H1             -1.9100594256      -32.1318166608       25.7757322479  TIP3      396             0.0000000000
     26104       596  TIP3      H2             -2.0423136410      -33.5270870922       25.2336394942  TIP3      396             0.0000000000
     26105       597  TIP3      OH2            -0.7627831375      -30.7788534861       27.9524423520  TIP3      397             0.0000000000
     26106       597  TIP3      H1             -0.4853679996      -31.6008059576       28.4001647653  TIP3      397             0.0000000000
     26107       597  TIP3      H2             -0.0693815235      -30.6682213692       27.2865654982  TIP3      397             0.0000000000
     26108       598  TIP3      OH2             9.4059031654      -22.5818013473       28.7916094833  TIP3      398             0.0000000000
     26109       598  TIP3      H1             10.0586684913      -23.2695553504       28.5073935527  TIP3      398             0.0000000000
     26110       598  TIP3      H2              9.1917534224      -22.9200217583       29.6616444050  TIP3      398             0.0000000000
     26111       599  TIP3      OH2             6.9802899944      -28.2891518023       30.7515614414  TIP3      399             0.0000000000
     26112       599  TIP3      H1              7.3259646211      -28.8987554414       30.0849390469  TIP3      399             0.0000000000
     26113       599  TIP3      H2              7.7910302844      -28.1276696140       31.2637302132  TIP3      399             0.0000000000
     26114       600  TIP3      OH2            15.5586282915      -36.6380837613       31.4747254054  TIP3      400             0.0000000000
     26115       600  TIP3      H1             15.7699918959      -36.0390990942       32.2330608600  TIP3      400             0.0000000000
     26116       600  TIP3      H2             16.1331641646      -36.2305469796       30.8002140308  TIP3      400             0.0000000000
     26117       601  TIP3      OH2            10.0976077766      -33.8377640498       31.0642259105  TIP3      401             0.0000000000
     26118       601  TIP3      H1             10.3317776151      -34.7867115852       31.0329998939  TIP3      401             0.0000000000
     26119       601  TIP3      H2             10.0682374610      -33.6516944701       30.1068745378  TIP3      401             0.0000000000
     26120       602  TIP3      OH2             3.3224454364      -35.7104281911       28.2348503065  TIP3      402             0.0000000000
     26121       602  TIP3      H1              3.2429653658      -34.8828120057       27.7386122719  TIP3      402             0.0000000000
     26122       602  TIP3      H2              2.8735409819      -36.3251056068       27.6061597503  TIP3      402             0.0000000000
     26123       603  TIP3      OH2            10.9793815811      -35.6835792715       26.6590256809  TIP3      403             0.0000000000
     26124       603  TIP3      H1             11.6663802740      -35.9407343168       27.3122643637  TIP3      403             0.0000000000
     26125       603  TIP3      H2             11.5262388048      -35.0956044038       26.0959250649  TIP3      403             0.0000000000
     26126       604  TIP3      OH2            -0.1015873299      -33.2986867563       28.9995875831  TIP3      404             0.0000000000
     26127       604  TIP3      H1              0.5345628584      -33.8723606445       29.4691538321  TIP3      404             0.0000000000
     26128       604  TIP3      H2             -0.0250360155      -33.6390284496       28.0963913641  TIP3      404             0.0000000000
     26129       605  TIP3      OH2             5.0411263904      -31.6857205760       28.3283658606  TIP3      405             0.0000000000
     26130       605  TIP3      H1              5.7004799706      -32.1961609312       28.8248259830  TIP3      405             0.0000000000
     26131       605  TIP3      H2              4.4241145442      -32.2827364065       27.8600292223  TIP3      405             0.0000000000
     26132       606  TIP3      OH2            16.0107302647      -35.2621164293       33.7433272100  TIP3      406             0.0000000000
     26133       606  TIP3      H1             15.4045825977      -34.4997253774       33.6331293233  TIP3      406             0.0000000000
     26134       606  TIP3      H2             16.0628628536      -35.3047318811       34.7047305481  TIP3      406             0.0000000000
     26135       607  TIP3      OH2             2.1804478932      -36.8171918833       32.3270095201  TIP3      407             0.0000000000
     26136       607  TIP3      H1              1.8671975102      -36.2980152704       31.5612410951  TIP3      407             0.0000000000
     26137       607  TIP3      H2              1.4771128650      -36.6123913331       32.9953613406  TIP3      407             0.0000000000
     26138       608  TIP3      OH2             9.4515670253      -27.3470309653       25.8642112071  TIP3      408             0.0000000000
     26139       608  TIP3      H1              9.1697470548      -27.6294307965       24.9835025122  TIP3      408             0.0000000000
     26140       608  TIP3      H2              9.1535812784      -26.4090733588       25.8984416690  TIP3      408             0.0000000000
     26141       609  TIP3      OH2             4.6778351794      -29.1935696735       32.5455895696  TIP3      409             0.0000000000
     26142       609  TIP3      H1              3.9789273344      -28.5456817072       32.7707598891  TIP3      409             0.0000000000
     26143       609  TIP3      H2              5.3864051260      -28.5953755826       32.2586828997  TIP3      409             0.0000000000
     26144       610  TIP3      OH2            12.7563523493      -36.2589641461       28.6901665228  TIP3      410             0.0000000000
     26145       610  TIP3      H1             12.6842425675      -37.1017239174       29.1560675976  TIP3      410             0.0000000000
     26146       610  TIP3      H2             13.4937283661      -35.8445881849       29.1644360681  TIP3      410             0.0000000000
     26147       611  TIP3      OH2             1.7336710926      -34.9493628578       30.3069414325  TIP3      411             0.0000000000
     26148       611  TIP3      H1              2.3612198224      -34.2946356109       30.6834947760  TIP3      411             0.0000000000
     26149       611  TIP3      H2              2.2660033308      -35.3866261748       29.6048944308  TIP3      411             0.0000000000
     26150       612  TIP3      OH2             3.1316166418      -27.1830499405       33.3691910798  TIP3      412             0.0000000000
     26151       612  TIP3      H1              3.0814572680      -26.2707975004       33.0323666796  TIP3      412             0.0000000000
     26152       612  TIP3      H2              2.2496314239      -27.2646906721       33.8130476128  TIP3      412             0.0000000000
     26153       613  TIP3      OH2            -0.8568705288      -27.5642855882       24.1967039820  TIP3      413             0.0000000000
     26154       613  TIP3      H1             -1.0184298168      -27.2889405502       23.2795108767  TIP3      413             0.0000000000
     26155       613  TIP3      H2             -0.7203535422      -26.7207133232       24.6640569974  TIP3      413             0.0000000000
     26156       614  TIP3      OH2            12.8375836148      -25.9103127056       30.9681961751  TIP3      414             0.0000000000
     26157       614  TIP3      H1             11.8582109126      -25.8018319062       31.0334933851  TIP3      414             0.0000000000
     26158       614  TIP3      H2             13.0737904970      -24.9916678477       30.7086427281  TIP3      414             0.0000000000
     26159       615  TIP3      OH2            13.1650063149      -37.6039039316       32.3453560786  TIP3      415             0.0000000000
     26160       615  TIP3      H1             12.5693210836      -36.8459512861       32.3150842743  TIP3      415             0.0000000000
     26161       615  TIP3      H2             13.9273405514      -37.2271177983       31.8281466868  TIP3      415             0.0000000000
     26162       616  TIP3      OH2             6.1618223598      -39.4839094370       29.8888917951  TIP3      416             0.0000000000
     26163       616  TIP3      H1              6.0121417454      -40.4379418409       29.8719806080  TIP3      416             0.0000000000
     26164       616  TIP3      H2              5.2645177509      -39.1698397900       30.1043813031  TIP3      416             0.0000000000
     26165       617  TIP3      OH2            11.0927336807      -24.1227251844       27.5394837184  TIP3      417             0.0000000000
     26166       617  TIP3      H1             11.5012085844      -24.8392578560       27.0076644252  TIP3      417             0.0000000000
     26167       617  TIP3      H2             11.5101419959      -23.3354129593       27.1269814974  TIP3      417             0.0000000000
     26168       618  TIP3      OH2            12.2891161592      -26.1808699365       26.0200310875  TIP3      418             0.0000000000
     26169       618  TIP3      H1             11.9952493498      -26.8960361760       25.4240725226  TIP3      418             0.0000000000
     26170       618  TIP3      H2             12.3379650076      -26.6771450289       26.8574043233  TIP3      418             0.0000000000
     26171       619  TIP3      OH2            13.8309020607      -27.5701518781       34.4885580100  TIP3      419             0.0000000000
     26172       619  TIP3      H1             13.9214870811      -28.2769017075       33.8137026556  TIP3      419             0.0000000000
     26173       619  TIP3      H2             13.9195058686      -26.6870329443       34.1029331681  TIP3      419             0.0000000000
     26174       620  TIP3      OH2             8.4064293824      -30.7217387930       24.2781920972  TIP3      420             0.0000000000
     26175       620  TIP3      H1              7.7254726706      -30.1203738048       23.9139579052  TIP3      420             0.0000000000
     26176       620  TIP3      H2              9.1345469861      -30.6444899529       23.6185392633  TIP3      420             0.0000000000
     26177       621  TIP3      OH2            15.8238621829      -31.3052926647       32.6503907752  TIP3      421             0.0000000000
     26178       621  TIP3      H1             15.0759037221      -30.6792277340       32.7077244005  TIP3      421             0.0000000000
     26179       621  TIP3      H2             16.3299679713      -31.2355077889       31.8233499953  TIP3      421             0.0000000000
     26180       622  TIP3      OH2            11.8417998431      -30.4826908055       25.2293534251  TIP3      422             0.0000000000
     26181       622  TIP3      H1             11.1270914308      -30.2798071402       25.8576241728  TIP3      422             0.0000000000
     26182       622  TIP3      H2             12.3806206747      -31.1448801501       25.7088660663  TIP3      422             0.0000000000
     26183       623  TIP3      OH2            11.7966760355      -32.3304383651       34.3152283277  TIP3      423             0.0000000000
     26184       623  TIP3      H1             11.7777566928      -31.5302076956       34.8733866056  TIP3      423             0.0000000000
     26185       623  TIP3      H2             11.1318378496      -32.0513592355       33.6503482343  TIP3      423             0.0000000000
     26186       624  TIP3      OH2             3.4570123246      -29.8307476558       27.1098357557  TIP3      424             0.0000000000
     26187       624  TIP3      H1              3.1487588862      -30.1997919106       26.2467080949  TIP3      424             0.0000000000
     26188       624  TIP3      H2              4.0844774662      -30.5002086798       27.4508398474  TIP3      424             0.0000000000
     26189       625  TIP3      OH2             4.7807392131      -26.4690051504       29.8038771158  TIP3      425             0.0000000000
     26190       625  TIP3      H1              4.7790456127      -26.9827359936       28.9903667589  TIP3      425             0.0000000000
     26191       625  TIP3      H2              5.5688246235      -26.8141911160       30.2603718673  TIP3      425             0.0000000000
     26192       626  TIP3      OH2             3.8215083003      -31.1132306058       30.7844661465  TIP3      426             0.0000000000
     26193       626  TIP3      H1              4.3530198306      -30.9371381167       29.9938128221  TIP3      426             0.0000000000
     26194       626  TIP3      H2              4.1606961740      -30.4261826778       31.4058516273  TIP3      426             0.0000000000
     26195       627  TIP3      OH2            10.1971481832      -25.5067869974       31.4883215334  TIP3      427             0.0000000000
     26196       627  TIP3      H1              9.9163850954      -24.8776877878       32.1604989131  TIP3      427             0.0000000000
     26197       627  TIP3      H2              9.9754099520      -26.3687578874       31.9113974639  TIP3      427             0.0000000000
     26198       628  TIP3      OH2             4.7478849748      -26.6606474074       35.4818145947  TIP3      428             0.0000000000
     26199       628  TIP3      H1              4.3316234300      -25.9225343876       35.9724479640  TIP3      428             0.0000000000
     26200       628  TIP3      H2              4.0757770115      -26.8609440790       34.7845555299  TIP3      428             0.0000000000
     26201       629  TIP3      OH2            10.7079557824      -31.2363740121       22.9301991774  TIP3      429             0.0000000000
     26202       629  TIP3      H1             11.3197381609      -31.1273099033       23.7003634098  TIP3      429             0.0000000000
     26203       629  TIP3      H2             11.1595035981      -30.7854415392       22.2042853165  TIP3      429             0.0000000000
     26204       630  TIP3      OH2             1.6910067071      -30.5008341217       34.6309510577  TIP3      430             0.0000000000
     26205       630  TIP3      H1              1.7423419027      -29.8366497198       35.3440114021  TIP3      430             0.0000000000
     26206       630  TIP3      H2              0.7473812571      -30.4137194247       34.4240384874  TIP3      430             0.0000000000
     26207       631  TIP3      OH2             8.4474626882      -24.5726064905       26.3342848181  TIP3      431             0.0000000000
     26208       631  TIP3      H1              8.8848854844      -24.2610384977       27.1357734258  TIP3      431             0.0000000000
     26209       631  TIP3      H2              7.8861477423      -23.8250540444       26.1090338583  TIP3      431             0.0000000000
     26210       632  TIP3      OH2             2.9951283735      -24.6276235105       36.2284683401  TIP3      432             0.0000000000
     26211       632  TIP3      H1              2.9324656608      -24.7250085671       35.2628087772  TIP3      432             0.0000000000
     26212       632  TIP3      H2              2.0655792129      -24.7614707121       36.4968826662  TIP3      432             0.0000000000
     26213       633  TIP3      OH2            14.4622582288      -39.5396144429       22.7625800630  TIP3      433             0.0000000000
     26214       633  TIP3      H1             13.5386405563      -39.4861105365       23.0557794920  TIP3      433             0.0000000000
     26215       633  TIP3      H2             14.6026448475      -38.6830360803       22.3419812706  TIP3      433             0.0000000000
     26216       634  TIP3      OH2             2.4272768947      -30.8288538053       24.7334291768  TIP3      434             0.0000000000
     26217       634  TIP3      H1              2.1724214804      -30.0407623030       24.2207271522  TIP3      434             0.0000000000
     26218       634  TIP3      H2              1.7641524463      -31.4740353104       24.4726259375  TIP3      434             0.0000000000
     26219       635  TIP3      OH2            -1.4773101815      -28.3818262699       33.6433418489  TIP3      435             0.0000000000
     26220       635  TIP3      H1             -1.9186390326      -28.4659386366       32.7767284027  TIP3      435             0.0000000000
     26221       635  TIP3      H2             -1.3924555619      -29.3318133891       33.8561667030  TIP3      435             0.0000000000
     26222       636  TIP3      OH2            -1.7160007715      -25.6521622466       30.4158548727  TIP3      436             0.0000000000
     26223       636  TIP3      H1             -0.7575343115      -25.7668254133       30.3943696381  TIP3      436             0.0000000000
     26224       636  TIP3      H2             -1.7976836896      -24.8326425395       30.9182828179  TIP3      436             0.0000000000
     26225       637  TIP3      OH2            16.2805357995      -24.8205724282       35.5916400524  TIP3      437             0.0000000000
     26226       637  TIP3      H1             16.5227687253      -25.6554774887       36.0499298307  TIP3      437             0.0000000000
     26227       637  TIP3      H2             15.7043815057      -24.6017091437       36.3821911379  TIP3      437             0.0000000000
     26228       638  TIP3      OH2             7.4812591483      -25.4082694098       34.9664946390  TIP3      438             0.0000000000
     26229       638  TIP3      H1              7.5393600838      -24.5652271032       35.4745088218  TIP3      438             0.0000000000
     26230       638  TIP3      H2              6.6082185293      -25.7663930869       35.2171159664  TIP3      438             0.0000000000
     26231       639  TIP3      OH2             7.8984258940      -21.6600786821       24.7370906665  TIP3      439             0.0000000000
     26232       639  TIP3      H1              7.8897666770      -21.6860425212       23.7669373666  TIP3      439             0.0000000000
     26233       639  TIP3      H2              7.9659056017      -20.7041495052       24.9320932872  TIP3      439             0.0000000000
     26234       640  TIP3      OH2             1.5667907309      -22.7967179726       26.5790603530  TIP3      440             0.0000000000
     26235       640  TIP3      H1              1.7062808175      -23.1875473066       27.4715866851  TIP3      440             0.0000000000
     26236       640  TIP3      H2              0.7062722694      -23.1926587035       26.3617261981  TIP3      440             0.0000000000
     26237       641  TIP3      OH2            11.0649726696      -22.7362544345       21.8536129063  TIP3      441             0.0000000000
     26238       641  TIP3      H1             11.5487145617      -23.4006694494       21.3748250629  TIP3      441             0.0000000000
     26239       641  TIP3      H2             11.0870853851      -22.8779823646       22.8034983927  TIP3      441             0.0000000000
     26240       642  TIP3      OH2            10.6759266518      -22.5084386070       24.5484211347  TIP3      442             0.0000000000
     26241       642  TIP3      H1              9.7159497107      -22.4062388875       24.6979230793  TIP3      442             0.0000000000
     26242       642  TIP3      H2             10.8918002117      -23.2644720272       25.1060436171  TIP3      442             0.0000000000
     26243       643  TIP3      OH2            13.6564405575      -33.4783999991       36.5869952019  TIP3      443             0.0000000000
     26244       643  TIP3      H1             13.1998940679      -33.0152232882       35.8634403143  TIP3      443             0.0000000000
     26245       643  TIP3      H2             13.6523071375      -34.3956852709       36.2763833164  TIP3      443             0.0000000000
     26246       644  TIP3      OH2             0.8117070456      -27.0700642538       34.5779715255  TIP3      444             0.0000000000
     26247       644  TIP3      H1              1.0323895641      -27.4343353207       35.4600940846  TIP3      444             0.0000000000
     26248       644  TIP3      H2             -0.0581616556      -27.4675516892       34.3654780922  TIP3      444             0.0000000000
     26249       645  TIP3      OH2             3.5456879746      -38.5687851937       30.5670747718  TIP3      445             0.0000000000
     26250       645  TIP3      H1              2.6636023593      -38.6861350913       30.1521043272  TIP3      445             0.0000000000
     26251       645  TIP3      H2              3.3552718786      -37.7681809939       31.0668916828  TIP3      445             0.0000000000
     26252       646  TIP3      OH2             8.0860993963      -38.6525037082       34.1122628226  TIP3      446             0.0000000000
     26253       646  TIP3      H1              8.5146849188      -39.3340827836       34.6473798648  TIP3      446             0.0000000000
     26254       646  TIP3      H2              7.1666379649      -39.0062217092       34.0314450386  TIP3      446             0.0000000000
     26255       647  TIP3      OH2            11.3879791405      -35.1299273642       34.7460218635  TIP3      447             0.0000000000
     26256       647  TIP3      H1             10.8679682791      -35.2685707287       35.5763257617  TIP3      447             0.0000000000
     26257       647  TIP3      H2             11.2646644708      -34.1797634606       34.5556932616  TIP3      447             0.0000000000
     26258       648  TIP3      OH2             3.5841947907      -33.6245439070       31.7628573327  TIP3      448             0.0000000000
     26259       648  TIP3      H1              2.8668678640      -33.6410696239       32.4248045820  TIP3      448             0.0000000000
     26260       648  TIP3      H2              3.5356718432      -32.6998875056       31.4344996145  TIP3      448             0.0000000000
     26261       649  TIP3      OH2             3.5819564168      -33.5672928685       26.6420842914  TIP3      449             0.0000000000
     26262       649  TIP3      H1              2.6174440680      -33.7309088159       26.5022762839  TIP3      449             0.0000000000
     26263       649  TIP3      H2              3.8836049710      -33.7755776533       25.7168749129  TIP3      449             0.0000000000
     26264       650  TIP3      OH2             9.0229771489      -33.0284165353       25.3739867856  TIP3      450             0.0000000000
     26265       650  TIP3      H1              8.6978147462      -32.1599035116       25.0492306931  TIP3      450             0.0000000000
     26266       650  TIP3      H2              9.7777928353      -33.1713210310       24.7635510173  TIP3      450             0.0000000000
     26267       651  TIP3      OH2             8.1314881186      -32.7841215682       36.8476514160  TIP3      451             0.0000000000
     26268       651  TIP3      H1              7.6054639215      -33.5646967936       37.1547504887  TIP3      451             0.0000000000
     26269       651  TIP3      H2              8.9664603179      -32.9102199263       37.3285972971  TIP3      451             0.0000000000
     26270       652  TIP3      OH2            10.0107070081      -33.5369580833       28.2588767995  TIP3      452             0.0000000000
     26271       652  TIP3      H1              9.8788798687      -32.9462599386       27.4980912504  TIP3      452             0.0000000000
     26272       652  TIP3      H2             10.2483871722      -34.3549199713       27.7758773739  TIP3      452             0.0000000000
     26273       653  TIP3      OH2             1.2149135571      -33.3679424204       33.4578597830  TIP3      453             0.0000000000
     26274       653  TIP3      H1              1.2997888392      -32.9664038745       34.3398148412  TIP3      453             0.0000000000
     26275       653  TIP3      H2              0.7690753391      -34.2028391057       33.6621636383  TIP3      453             0.0000000000
     26276       654  TIP3      OH2             4.5622200599      -35.9599841557       20.2663575845  TIP3      454             0.0000000000
     26277       654  TIP3      H1              4.1788802457      -36.3493211970       21.0657522262  TIP3      454             0.0000000000
     26278       654  TIP3      H2              3.8485576002      -35.4941073051       19.8468297325  TIP3      454             0.0000000000
     26279       655  TIP3      OH2            -2.1633411543      -36.2684964982       27.4253524552  TIP3      455             0.0000000000
     26280       655  TIP3      H1             -1.4790283771      -36.2384259935       28.1223431618  TIP3      455             0.0000000000
     26281       655  TIP3      H2             -1.6805128138      -36.6140160679       26.6546845265  TIP3      455             0.0000000000
     26282       656  TIP3      OH2            -0.8347712340      -35.5154739966       22.8535006803  TIP3      456             0.0000000000
     26283       656  TIP3      H1             -0.3353824273      -34.9281562844       22.2481870433  TIP3      456             0.0000000000
     26284       656  TIP3      H2             -1.5555992275      -34.9110761340       23.1159367897  TIP3      456             0.0000000000
     26285       657  TIP3      OH2             9.3104410567      -31.9234820208       32.8142753898  TIP3      457             0.0000000000
     26286       657  TIP3      H1              9.6779648662      -32.6075916959       32.2127669898  TIP3      457             0.0000000000
     26287       657  TIP3      H2              8.8377034293      -32.4564927424       33.4805081368  TIP3      457             0.0000000000
     26288       658  TIP3      OH2             6.1076384125      -35.8982015494       27.7050237367  TIP3      458             0.0000000000
     26289       658  TIP3      H1              5.1878169295      -36.1477636776       27.9563696894  TIP3      458             0.0000000000
     26290       658  TIP3      H2              6.6172069762      -36.2066885778       28.4773671393  TIP3      458             0.0000000000
     26291       659  TIP3      OH2             0.9271354973      -34.4078744416       26.5142408802  TIP3      459             0.0000000000
     26292       659  TIP3      H1              0.0362371499      -34.2462553846       26.1286898266  TIP3      459             0.0000000000
     26293       659  TIP3      H2              1.1914404615      -35.2445239779       26.0835768753  TIP3      459             0.0000000000
     26294       660  TIP3      OH2             4.5531354369      -34.2910085129       24.2724055946  TIP3      460             0.0000000000
     26295       660  TIP3      H1              5.5272880035      -34.2848999982       24.2618826627  TIP3      460             0.0000000000
     26296       660  TIP3      H2              4.3270578361      -33.7655085661       23.4793954293  TIP3      460             0.0000000000
     26297       661  TIP3      OH2            10.4136638794      -36.5827787814       30.7916511946  TIP3      461             0.0000000000
     26298       661  TIP3      H1              9.7288250501      -36.5037250201       31.5097327458  TIP3      461             0.0000000000
     26299       661  TIP3      H2              9.9182043830      -36.9312618784       30.0230978981  TIP3      461             0.0000000000
     26300       662  TIP3      OH2             3.3062369045      -33.2862621361       21.7788381446  TIP3      462             0.0000000000
     26301       662  TIP3      H1              2.6674632769      -33.4623011083       21.0661109015  TIP3      462             0.0000000000
     26302       662  TIP3      H2              4.0557073864      -32.9309473692       21.2766146105  TIP3      462             0.0000000000
     26303       663  TIP3      OH2            13.7134694731      -21.0757873012       37.2170142588  TIP3      463             0.0000000000
     26304       663  TIP3      H1             13.9779286062      -20.6924352837       36.3615089520  TIP3      463             0.0000000000
     26305       663  TIP3      H2             14.4360939564      -20.7519068183       37.7749505870  TIP3      463             0.0000000000
     26306       664  TIP3      OH2             1.3896805679      -28.6057005630       36.7892724523  TIP3      464             0.0000000000
     26307       664  TIP3      H1              2.1098854805      -28.3595792438       37.3923994866  TIP3      464             0.0000000000
     26308       664  TIP3      H2              0.6173446996      -28.5273447133       37.3909242987  TIP3      464             0.0000000000
     26309       665  TIP3      OH2             7.2588386439      -33.3242624930       29.4400011643  TIP3      465             0.0000000000
     26310       665  TIP3      H1              8.0619355110      -33.7213642318       29.0557777543  TIP3      465             0.0000000000
     26311       665  TIP3      H2              7.2821528563      -33.7016742864       30.3414242599  TIP3      465             0.0000000000
     26312       666  TIP3      OH2             2.4152997807      -37.0728079100       26.0190729227  TIP3      466             0.0000000000
     26313       666  TIP3      H1              2.0615759364      -37.9780662338       25.9745212762  TIP3      466             0.0000000000
     26314       666  TIP3      H2              3.1765272381      -37.1488943515       25.4225343004  TIP3      466             0.0000000000
     26315       667  TIP3      OH2             6.0448228651      -34.8298803165       31.9167096015  TIP3      467             0.0000000000
     26316       667  TIP3      H1              5.1975279215      -34.3659768982       32.0821760939  TIP3      467             0.0000000000
     26317       667  TIP3      H2              6.5866312642      -34.5467152509       32.6814546122  TIP3      467             0.0000000000
     26318       668  TIP3      OH2             6.6212506327      -28.6478604568       23.6494339195  TIP3      468             0.0000000000
     26319       668  TIP3      H1              5.8157012114      -29.1215747592       23.3306105636  TIP3      468             0.0000000000
     26320       668  TIP3      H2              6.3926249754      -28.5145780071       24.5888743071  TIP3      468             0.0000000000
     26321       669  TIP3      OH2            13.7795325599      -29.3982658364       32.4488118225  TIP3      469             0.0000000000
     26322       669  TIP3      H1             14.1106652647      -28.7838998285       31.8061074545  TIP3      469             0.0000000000
     26323       669  TIP3      H2             12.8543070886      -29.4661213121       32.0802754543  TIP3      469             0.0000000000
     26324       670  TIP3      OH2             8.1242169716      -28.3744238849       34.9007396071  TIP3      470             0.0000000000
     26325       670  TIP3      H1              7.7590721215      -28.8040618310       35.6831125293  TIP3      470             0.0000000000
     26326       670  TIP3      H2              7.8521293388      -27.4538743610       35.0058817852  TIP3      470             0.0000000000
     26327       671  TIP3      OH2            11.1872682823      -33.8756625456       23.6201209918  TIP3      471             0.0000000000
     26328       671  TIP3      H1             12.1227597351      -34.0336217618       23.8877540863  TIP3      471             0.0000000000
     26329       671  TIP3      H2             11.2926030988      -33.1337350603       23.0012900760  TIP3      471             0.0000000000
     26330       672  TIP3      OH2             1.7194264960      -29.2373897799       29.4596261835  TIP3      472             0.0000000000
     26331       672  TIP3      H1              2.3915891167      -29.3126014035       28.7572269797  TIP3      472             0.0000000000
     26332       672  TIP3      H2              1.7691414229      -30.0931666349       29.9177212274  TIP3      472             0.0000000000
     26333       673  TIP3      OH2             8.6849778201      -27.1647562817       22.6616497692  TIP3      473             0.0000000000
     26334       673  TIP3      H1              8.3591185166      -26.3584525835       23.0927830047  TIP3      473             0.0000000000
     26335       673  TIP3      H2              7.9861511007      -27.8096027546       22.8967838502  TIP3      473             0.0000000000
     26336       674  TIP3      OH2            -1.2892777307      -30.8463446444       34.7187562540  TIP3      474             0.0000000000
     26337       674  TIP3      H1             -1.1145519248      -31.2929307540       35.5698860774  TIP3      474             0.0000000000
     26338       674  TIP3      H2             -1.9046991015      -31.4573621457       34.2766399197  TIP3      474             0.0000000000
     26339       675  TIP3      OH2             5.7289203913      -31.2880063888       36.8919308813  TIP3      475             0.0000000000
     26340       675  TIP3      H1              5.4094861451      -31.5982694194       36.0326779086  TIP3      475             0.0000000000
     26341       675  TIP3      H2              6.6518667213      -31.6125457938       36.8902021547  TIP3      475             0.0000000000
     26342       676  TIP3      OH2            10.4442116234      -25.9526523377       34.8456024884  TIP3      476             0.0000000000
     26343       676  TIP3      H1              9.5196608927      -25.7857996626       34.6042901861  TIP3      476             0.0000000000
     26344       676  TIP3      H2             10.3999832716      -25.6616040998       35.7785045735  TIP3      476             0.0000000000
     26345       677  TIP3      OH2            16.3448391742      -33.8422452108       22.9576604655  TIP3      477             0.0000000000
     26346       677  TIP3      H1             15.4932946342      -34.0377892650       22.5259021950  TIP3      477             0.0000000000
     26347       677  TIP3      H2             16.1665075453      -32.8835803773       23.0268755516  TIP3      477             0.0000000000
     26348       678  TIP3      OH2            15.9513898603      -28.3081281540       35.7218384449  TIP3      478             0.0000000000
     26349       678  TIP3      H1             15.2116766597      -27.6551356527       35.7805956556  TIP3      478             0.0000000000
     26350       678  TIP3      H2             16.7128572126      -27.8454994753       35.3623716493  TIP3      478             0.0000000000
     26351       679  TIP3      OH2            14.4425841346      -24.9693935950       23.6397129259  TIP3      479             0.0000000000
     26352       679  TIP3      H1             13.9738536955      -25.7528257732       23.9782334868  TIP3      479             0.0000000000
     26353       679  TIP3      H2             14.6119604418      -25.1378701418       22.7109438192  TIP3      479             0.0000000000
     26354       680  TIP3      OH2            11.6168986796      -30.1194796600       30.7588555899  TIP3      480             0.0000000000
     26355       680  TIP3      H1             10.6613876489      -30.3027852949       30.6371678366  TIP3      480             0.0000000000
     26356       680  TIP3      H2             11.9790800293      -30.9102671441       30.3070338987  TIP3      480             0.0000000000
     26357       681  TIP3      OH2             4.0950918223      -25.8066383921       26.8261689185  TIP3      481             0.0000000000
     26358       681  TIP3      H1              4.5932576607      -24.9964997980       26.6363777798  TIP3      481             0.0000000000
     26359       681  TIP3      H2              3.2104941920      -25.5676260942       26.5231783439  TIP3      481             0.0000000000
     26360       682  TIP3      OH2             5.5157613504      -28.1503073736       26.3767247378  TIP3      482             0.0000000000
     26361       682  TIP3      H1              5.2080606296      -27.2235661611       26.4398746654  TIP3      482             0.0000000000
     26362       682  TIP3      H2              4.7770175131      -28.6114684483       26.8095258137  TIP3      482             0.0000000000
     26363       683  TIP3      OH2             5.9658683506      -23.9451583826       32.7727034283  TIP3      483             0.0000000000
     26364       683  TIP3      H1              6.4259819053      -23.1424899585       32.4834356112  TIP3      483             0.0000000000
     26365       683  TIP3      H2              6.5835830726      -24.2894475973       33.4414588005  TIP3      483             0.0000000000
     26366       684  TIP3      OH2             4.1968295528      -23.1343531177       25.8726613151  TIP3      484             0.0000000000
     26367       684  TIP3      H1              3.2357868772      -23.0001872478       26.0522838202  TIP3      484             0.0000000000
     26368       684  TIP3      H2              4.5650068015      -22.3096597918       26.2442720398  TIP3      484             0.0000000000
     26369       685  TIP3      OH2             9.4696399745      -27.9448679301       32.3876756928  TIP3      485             0.0000000000
     26370       685  TIP3      H1              9.1593006887      -28.1360223913       33.2969157083  TIP3      485             0.0000000000
     26371       685  TIP3      H2             10.1053746724      -28.6547561140       32.2239685718  TIP3      485             0.0000000000
     26372       686  TIP3      OH2            12.3346391649      -23.3985082144       34.8530289916  TIP3      486             0.0000000000
     26373       686  TIP3      H1             11.5952371952      -23.8486200007       34.4014083974  TIP3      486             0.0000000000
     26374       686  TIP3      H2             12.4711981449      -22.6559041256       34.2235753689  TIP3      486             0.0000000000
     26375       687  TIP3      OH2            16.3446310976      -22.4447487386       21.8389053235  TIP3      487             0.0000000000
     26376       687  TIP3      H1             17.0105071669      -21.8739340258       21.4131308875  TIP3      487             0.0000000000
     26377       687  TIP3      H2             15.5479949127      -21.8805586386       21.8992452760  TIP3      487             0.0000000000
     26378       688  TIP3      OH2             0.3532648738      -36.1364337639       34.2493422129  TIP3      488             0.0000000000
     26379       688  TIP3      H1             -0.5459233873      -35.7665761573       34.2524886581  TIP3      488             0.0000000000
     26380       688  TIP3      H2              0.2397471753      -36.9649160568       34.7501921057  TIP3      488             0.0000000000
     26381       689  TIP3      OH2            12.6099488693      -28.1949308146       23.8091506581  TIP3      489             0.0000000000
     26382       689  TIP3      H1             12.3492006163      -29.0338189398       24.2426468257  TIP3      489             0.0000000000
     26383       689  TIP3      H2             13.5705734170      -28.2391906747       23.9094214380  TIP3      489             0.0000000000
     26384       690  TIP3      OH2            -0.0221855534      -24.3310476339       32.6914424626  TIP3      490             0.0000000000
     26385       690  TIP3      H1              0.2852993682      -25.2510153715       32.6992601166  TIP3      490             0.0000000000
     26386       690  TIP3      H2              0.2418554683      -24.0381578722       33.5715935550  TIP3      490             0.0000000000
     26387       691  TIP3      OH2             4.7027432415      -26.2253340291       22.3717364872  TIP3      491             0.0000000000
     26388       691  TIP3      H1              4.9502224935      -26.8380399772       23.0943243862  TIP3      491             0.0000000000
     26389       691  TIP3      H2              4.8398424253      -25.3524217663       22.7859469070  TIP3      491             0.0000000000
     26390       692  TIP3      OH2             9.1941783343      -36.4342363109       33.1533573503  TIP3      492             0.0000000000
     26391       692  TIP3      H1              9.7667689237      -36.2621996859       33.9183002517  TIP3      492             0.0000000000
     26392       692  TIP3      H2              8.6517197583      -37.1965096057       33.4593136830  TIP3      492             0.0000000000
     26393       693  TIP3      OH2             9.9789180411      -36.7960482459       24.2938820609  TIP3      493             0.0000000000
     26394       693  TIP3      H1             10.0664333132      -36.2170602438       23.5207202529  TIP3      493             0.0000000000
     26395       693  TIP3      H2             10.4176590087      -36.2638541962       24.9839927020  TIP3      493             0.0000000000
     26396       694  TIP3      OH2             7.4725988730      -24.6520311996       22.9781590428  TIP3      494             0.0000000000
     26397       694  TIP3      H1              6.7429521829      -24.0809971314       23.2678683012  TIP3      494             0.0000000000
     26398       694  TIP3      H2              8.1138401642      -23.9789269379       22.6636555634  TIP3      494             0.0000000000
     26399       695  TIP3      OH2             7.0444053583      -34.9723968270       25.1693821341  TIP3      495             0.0000000000
     26400       695  TIP3      H1              7.8846431169      -34.4635843471       25.1496114738  TIP3      495             0.0000000000
     26401       695  TIP3      H2              6.8867049118      -35.2028206442       26.0877828252  TIP3      495             0.0000000000
     26402       696  TIP3      OH2             7.6308248279      -34.0016285562       34.3306310675  TIP3      496             0.0000000000
     26403       696  TIP3      H1              7.7140343493      -33.4466350835       35.1260452923  TIP3      496             0.0000000000
     26404       696  TIP3      H2              8.2817817192      -34.6997325517       34.4394719705  TIP3      496             0.0000000000
     26405       697  TIP3      OH2             7.8816071816      -37.9590708265       26.0634578277  TIP3      497             0.0000000000
     26406       697  TIP3      H1              7.5930086316      -37.2873347947       26.6962048938  TIP3      497             0.0000000000
     26407       697  TIP3      H2              8.5815602873      -37.4814374647       25.5586147484  TIP3      497             0.0000000000
     26408       698  TIP3      OH2             4.8307523521      -23.5096825741       23.0779176881  TIP3      498             0.0000000000
     26409       698  TIP3      H1              5.1259246694      -22.6852257887       22.6869693580  TIP3      498             0.0000000000
     26410       698  TIP3      H2              4.6736602589      -23.2705363303       24.0303182080  TIP3      498             0.0000000000
     26411       699  TIP3      OH2             3.5565110400      -36.8001871357       22.7077027455  TIP3      499             0.0000000000
     26412       699  TIP3      H1              3.5236969279      -35.9091176899       23.0957763705  TIP3      499             0.0000000000
     26413       699  TIP3      H2              4.4753804703      -37.0762647714       22.9492275688  TIP3      499             0.0000000000
     26414       700  TIP3      OH2            13.7825278968      -36.1520381011       35.1371374202  TIP3      500             0.0000000000
     26415       700  TIP3      H1             12.8622301957      -35.8104032734       35.0462452780  TIP3      500             0.0000000000
     26416       700  TIP3      H2             14.1083031388      -36.1052410624       34.2265959510  TIP3      500             0.0000000000
     26417       701  TIP3      OH2            12.3175270634      -32.3390925685       29.3711135085  TIP3      501             0.0000000000
     26418       701  TIP3      H1             11.5950538517      -32.7922495362       28.8966403799  TIP3      501             0.0000000000
     26419       701  TIP3      H2             12.8966092428      -33.0746952171       29.6787573007  TIP3      501             0.0000000000
     26420       702  TIP3      OH2             1.8141508512      -26.3208631178       21.7192852823  TIP3      502             0.0000000000
     26421       702  TIP3      H1              2.5084797712      -25.8183372427       22.1413925452  TIP3      502             0.0000000000
     26422       702  TIP3      H2              2.3100835940      -26.9185678734       21.1460986246  TIP3      502             0.0000000000
     26423       703  TIP3      OH2             0.1442477533      -33.7822707051       20.9384780316  TIP3      503             0.0000000000
     26424       703  TIP3      H1              0.2082731144      -32.8164699590       21.0646749025  TIP3      503             0.0000000000
     26425       703  TIP3      H2             -0.7313760391      -33.9404969886       20.5800908682  TIP3      503             0.0000000000
     26426       704  TIP3      OH2            13.4949615055      -23.1078426385       30.8422708115  TIP3      504             0.0000000000
     26427       704  TIP3      H1             13.3849992874      -22.4224737407       30.1522934992  TIP3      504             0.0000000000
     26428       704  TIP3      H2             14.4520522651      -23.0011397493       31.0223046389  TIP3      504             0.0000000000
     26429       705  TIP3      OH2             0.9902205203      -38.8168100372       29.6318846498  TIP3      505             0.0000000000
     26430       705  TIP3      H1              0.8103153465      -38.8561950809       28.6620210031  TIP3      505             0.0000000000
     26431       705  TIP3      H2              0.7232970327      -39.7137491138       29.8179680910  TIP3      505             0.0000000000
     26432       706  TIP3      OH2            -0.0684618845      -25.0301335608       25.7962546057  TIP3      506             0.0000000000
     26433       706  TIP3      H1             -0.9267957433      -24.5929747630       25.7645258632  TIP3      506             0.0000000000
     26434       706  TIP3      H2              0.4006185125      -24.5649467613       25.0974804501  TIP3      506             0.0000000000
     26435       707  TIP3      OH2            -0.8707340856      -22.3811315178       37.0828815338  TIP3      507             0.0000000000
     26436       707  TIP3      H1             -0.2625375673      -22.5822483415       37.8231985832  TIP3      507             0.0000000000
     26437       707  TIP3      H2             -1.2669067951      -23.2524850952       36.9035302488  TIP3      507             0.0000000000
     26438       708  TIP3      OH2             3.8151470293      -23.4612007560       38.6908519433  TIP3      508             0.0000000000
     26439       708  TIP3      H1              4.5717972118      -23.9636467985       39.0257679621  TIP3      508             0.0000000000
     26440       708  TIP3      H2              3.7888347273      -23.7432078101       37.7560922151  TIP3      508             0.0000000000
     26441       709  TIP3      OH2            10.3255143537      -25.0794766748       37.4450515630  TIP3      509             0.0000000000
     26442       709  TIP3      H1             10.0054351839      -25.9647584553       37.7197247924  TIP3      509             0.0000000000
     26443       709  TIP3      H2             11.1041864678      -24.9706592112       38.0287314148  TIP3      509             0.0000000000
     26444       710  TIP3      OH2            -0.9580888869      -28.6110182692       38.0821667404  TIP3      510             0.0000000000
     26445       710  TIP3      H1             -0.7912937870      -29.5223983051       37.7806839606  TIP3      510             0.0000000000
     26446       710  TIP3      H2             -1.6966103809      -28.3526444975       37.5062217345  TIP3      510             0.0000000000
     26447       711  TIP3      OH2             5.7607745671      -28.6228275514       37.4659737910  TIP3      511             0.0000000000
     26448       711  TIP3      H1              5.4259429826      -28.3084918285       36.6025828095  TIP3      511             0.0000000000
     26449       711  TIP3      H2              5.8343048371      -29.5989638938       37.3575231675  TIP3      511             0.0000000000
     26450       712  TIP3      OH2            11.4785363593      -28.7683243331       34.8076805306  TIP3      512             0.0000000000
     26451       712  TIP3      H1             12.2427986885      -28.1570822833       34.8381724166  TIP3      512             0.0000000000
     26452       712  TIP3      H2             10.7534481340      -28.1278255888       34.8919366953  TIP3      512             0.0000000000
     26453       713  TIP3      OH2            -0.0339871207      -31.3864973030       37.4599674164  TIP3      513             0.0000000000
     26454       713  TIP3      H1              0.3839891103      -32.2493008360       37.3713353712  TIP3      513             0.0000000000
     26455       713  TIP3      H2             -0.2693043218      -31.3797305568       38.4017571317  TIP3      513             0.0000000000
     26456       714  TIP3      OH2             4.7309554911      -30.2733314364       22.5653486663  TIP3      514             0.0000000000
     26457       714  TIP3      H1              4.0628497352      -30.7334470857       23.0961911581  TIP3      514             0.0000000000
     26458       714  TIP3      H2              4.8449590041      -30.9173021124       21.8338349436  TIP3      514             0.0000000000
     26459       715  TIP3      OH2             3.8622713822      -32.4501342769       34.8106610880  TIP3      515             0.0000000000
     26460       715  TIP3      H1              3.2703152627      -31.7246388118       35.0706616553  TIP3      515             0.0000000000
     26461       715  TIP3      H2              4.2634209713      -32.0745254524       34.0077197970  TIP3      515             0.0000000000
     26462       716  TIP3      OH2             5.6704034396      -32.0202847879       20.7257871450  TIP3      516             0.0000000000
     26463       716  TIP3      H1              5.4694323350      -32.1831520810       19.7937592798  TIP3      516             0.0000000000
     26464       716  TIP3      H2              6.6283490291      -31.9257619730       20.7835050555  TIP3      516             0.0000000000
     26465       717  TIP3      OH2             8.9332200901      -29.8752642578       38.1504778495  TIP3      517             0.0000000000
     26466       717  TIP3      H1              9.8893143699      -29.8844911423       38.0268662388  TIP3      517             0.0000000000
     26467       717  TIP3      H2              8.7652921347      -30.6425328195       38.7191517618  TIP3      517             0.0000000000
     26468       718  TIP3      OH2            15.1654814089      -29.6264449261       20.1132033504  TIP3      518             0.0000000000
     26469       718  TIP3      H1             14.7699290180      -30.1227470613       19.3807468204  TIP3      518             0.0000000000
     26470       718  TIP3      H2             15.0043156319      -28.7238124828       19.8497078860  TIP3      518             0.0000000000
     26471       719  TIP3      OH2             4.2916184598      -35.0662625570       35.8721211374  TIP3      519             0.0000000000
     26472       719  TIP3      H1              4.4072674500      -35.7590893963       35.1993331642  TIP3      519             0.0000000000
     26473       719  TIP3      H2              4.2286344257      -34.2541129710       35.3265843951  TIP3      519             0.0000000000
     26474       720  TIP3      OH2             4.6673269093      -36.6103532210       33.4393065649  TIP3      520             0.0000000000
     26475       720  TIP3      H1              5.1979611130      -36.2209587315       32.7084599173  TIP3      520             0.0000000000
     26476       720  TIP3      H2              3.7882491381      -36.7646290844       33.0160989739  TIP3      520             0.0000000000
     26477       721  TIP3      OH2             6.2169927565      -31.1968508483       33.6665898883  TIP3      521             0.0000000000
     26478       721  TIP3      H1              6.9719888997      -31.3552273102       33.0976100572  TIP3      521             0.0000000000
     26479       721  TIP3      H2              5.8490159017      -30.3598792503       33.3360120771  TIP3      521             0.0000000000
     26480       722  TIP3      OH2            10.6073253155      -33.4311952146       38.6192989546  TIP3      522             0.0000000000
     26481       722  TIP3      H1             10.8587855137      -34.3620320953       38.5425241301  TIP3      522             0.0000000000
     26482       722  TIP3      H2             11.4734072960      -32.9906630655       38.6564238194  TIP3      522             0.0000000000
     26483       723  TIP3      OH2            11.9499684851      -30.6523188002       36.8028906398  TIP3      523             0.0000000000
     26484       723  TIP3      H1             11.6911760059      -29.9354692588       36.1879249670  TIP3      523             0.0000000000
     26485       723  TIP3      H2             12.9114638914      -30.6580367721       36.6190799237  TIP3      523             0.0000000000
     26486       724  TIP3      OH2             2.7265335895      -33.8073380301       37.7899368673  TIP3      524             0.0000000000
     26487       724  TIP3      H1              1.9568916903      -34.3797022424       37.6021389370  TIP3      524             0.0000000000
     26488       724  TIP3      H2              3.3922493538      -34.1593652588       37.1703634765  TIP3      524             0.0000000000
     26489       725  TIP3      OH2             5.5385526508      -39.0592427251       33.8697955745  TIP3      525             0.0000000000
     26490       725  TIP3      H1              5.3050350460      -38.1116262458       33.7675763982  TIP3      525             0.0000000000
     26491       725  TIP3      H2              4.7588489721      -39.4801681418       33.4852698629  TIP3      525             0.0000000000
     26492       726  TIP3      OH2             6.7383965727      -34.9169714168       37.4521116207  TIP3      526             0.0000000000
     26493       726  TIP3      H1              6.4194545835      -35.1687771758       38.3396763134  TIP3      526             0.0000000000
     26494       726  TIP3      H2              5.9518461174      -35.1261038094       36.9135878668  TIP3      526             0.0000000000
     26495       727  TIP3      OH2             9.4566115062      -35.8117281126       36.5117964502  TIP3      527             0.0000000000
     26496       727  TIP3      H1              8.4926838761      -35.7246540940       36.6351187593  TIP3      527             0.0000000000
     26497       727  TIP3      H2              9.7055031106      -36.4223869923       37.2289088047  TIP3      527             0.0000000000
     26498       728  TIP3      OH2            11.0163151240      -36.9444353885       38.4676397598  TIP3      528             0.0000000000
     26499       728  TIP3      H1             11.0236907614      -37.9360393610       38.4157745836  TIP3      528             0.0000000000
     26500       728  TIP3      H2             10.7637576815      -36.8061790545       39.3920976496  TIP3      528             0.0000000000
     26501       729  TIP3      OH2             0.8213209046      -35.8990445091       37.5653674827  TIP3      529             0.0000000000
     26502       729  TIP3      H1              1.0366762266      -36.6451842125       36.9700652038  TIP3      529             0.0000000000
     26503       729  TIP3      H2              0.7247182938      -36.3540725103       38.4208107340  TIP3      529             0.0000000000
     26504       730  TIP3      OH2             5.6675898378       39.8692842091       36.5328392836  TIP3      530             0.0000000000
     26505       730  TIP3      H1              6.3804710528       39.2184514819       36.5287985164  TIP3      530             0.0000000000
     26506       730  TIP3      H2              5.5887152749       40.1167922553       35.5900249937  TIP3      530             0.0000000000
     26507       731  TIP3      OH2             6.1082641101      -38.1522844826       38.5676774382  TIP3      531             0.0000000000
     26508       731  TIP3      H1              5.8702124342      -38.7514510028       37.8305823662  TIP3      531             0.0000000000
     26509       731  TIP3      H2              5.4422651206      -37.4509447103       38.5221159790  TIP3      531             0.0000000000
     26510       732  TIP3      OH2            -0.8679855393      -26.6812840518       21.2173734360  TIP3      532             0.0000000000
     26511       732  TIP3      H1              0.0757788474      -26.6479009404       21.4897502256  TIP3      532             0.0000000000
     26512       732  TIP3      H2             -0.8217447664      -27.3806715755       20.5601655798  TIP3      532             0.0000000000
     26513       733  TIP3      OH2            -2.1631396038      -21.3648685753       26.2479323885  TIP3      533             0.0000000000
     26514       733  TIP3      H1             -2.8715060892      -21.8509017859       25.7704216202  TIP3      533             0.0000000000
     26515       733  TIP3      H2             -1.8810829256      -22.0218533461       26.9090735882  TIP3      533             0.0000000000
     26516       734  TIP3      OH2            -1.3296508148      -23.2269047114       28.1210884491  TIP3      534             0.0000000000
     26517       734  TIP3      H1             -1.6888095646      -24.1043257809       28.3175233574  TIP3      534             0.0000000000
     26518       734  TIP3      H2             -1.1057587958      -22.8989614295       29.0071780874  TIP3      534             0.0000000000
     26519       735  TIP3      OH2            16.2164388194      -22.4821556340       31.0743359598  TIP3      535             0.0000000000
     26520       735  TIP3      H1             16.2346311574      -22.2567473715       32.0201040828  TIP3      535             0.0000000000
     26521       735  TIP3      H2             16.8925142261      -21.8761396949       30.7477918976  TIP3      535             0.0000000000
     26522       736  TIP3      OH2            15.7903840752      -22.8133293769       33.9564512608  TIP3      536             0.0000000000
     26523       736  TIP3      H1             15.2936994345      -23.5801029099       33.6229240267  TIP3      536             0.0000000000
     26524       736  TIP3      H2             16.2379875622      -23.2924717217       34.6961187407  TIP3      536             0.0000000000
     26525       737  TIP3      OH2            14.0958356700      -27.1607221879       38.6801682017  TIP3      537             0.0000000000
     26526       737  TIP3      H1             13.2364164359      -27.1176848585       39.1016816048  TIP3      537             0.0000000000
     26527       737  TIP3      H2             14.5894763737      -26.3808026670       39.0232052896  TIP3      537             0.0000000000
     26528       738  TIP3      OH2            15.5565289244      -28.7604798176       24.0702244734  TIP3      538             0.0000000000
     26529       738  TIP3      H1             16.4320387367      -28.4391760348       24.3499411117  TIP3      538             0.0000000000
     26530       738  TIP3      H2             15.5000787595      -29.5089159415       24.7254043469  TIP3      538             0.0000000000
     26531       739  TIP3      OH2            15.9157281782      -30.5196080549       26.0489512963  TIP3      539             0.0000000000
     26532       739  TIP3      H1             15.1975700278      -31.1756469903       26.2440102966  TIP3      539             0.0000000000
     26533       739  TIP3      H2             16.5162646060      -30.6123487006       26.7963280204  TIP3      539             0.0000000000
     26534       740  TIP3      OH2            15.7016745054      -27.6901870875       30.8876270683  TIP3      540             0.0000000000
     26535       740  TIP3      H1             16.4953711102      -28.0598223061       30.4478144344  TIP3      540             0.0000000000
     26536       740  TIP3      H2             15.9304068116      -26.7461813140       30.6668300510  TIP3      540             0.0000000000
     26537       741  TIP3      OH2            14.2038791921      -25.2007017004       33.2179560911  TIP3      541             0.0000000000
     26538       741  TIP3      H1             13.5747988170      -24.7437373213       33.8202810928  TIP3      541             0.0000000000
     26539       741  TIP3      H2             13.5854811979      -25.4282051133       32.4858148336  TIP3      541             0.0000000000
     26540       742  TIP3      OH2            16.2940395793      -30.8086094464       22.2955438095  TIP3      542             0.0000000000
     26541       742  TIP3      H1             15.6227158452      -30.5429948654       21.6481574121  TIP3      542             0.0000000000
     26542       742  TIP3      H2             16.0863468476      -30.2659346846       23.0722978824  TIP3      542             0.0000000000
     26543       743  TIP3      OH2            14.5228895072      -33.6734543324       20.9110153966  TIP3      543             0.0000000000
     26544       743  TIP3      H1             14.6210369573      -32.9810919281       20.2481927885  TIP3      543             0.0000000000
     26545       743  TIP3      H2             14.3340695199      -34.4808387380       20.3916647198  TIP3      543             0.0000000000
     26546       744  TIP3      OH2            13.6041702623      -31.9147801285       27.1471393127  TIP3      544             0.0000000000
     26547       744  TIP3      H1             13.5764915699      -32.7584768164       26.6338508460  TIP3      544             0.0000000000
     26548       744  TIP3      H2             13.0746096462      -32.0639314588       27.9300150090  TIP3      544             0.0000000000
     26549       745  TIP3      OH2            -1.2778073555      -30.1508049158       30.6107584025  TIP3      545             0.0000000000
     26550       745  TIP3      H1             -1.1015786473      -30.2325799033       29.6481788145  TIP3      545             0.0000000000
     26551       745  TIP3      H2             -0.3848654445      -30.3308650321       30.9635459914  TIP3      545             0.0000000000
     26552       746  TIP3      OH2            14.5314529229      -30.3314962431       36.1866616218  TIP3      546             0.0000000000
     26553       746  TIP3      H1             15.1699899266      -31.0395390269       36.4066842865  TIP3      546             0.0000000000
     26554       746  TIP3      H2             15.1243423806      -29.5365257086       36.2434705685  TIP3      546             0.0000000000
     26555       747  TIP3      OH2            16.0818843712      -32.4070639204       36.9005317462  TIP3      547             0.0000000000
     26556       747  TIP3      H1             15.1949967848      -32.7891099086       36.7330006663  TIP3      547             0.0000000000
     26557       747  TIP3      H2             16.6519157168      -33.1906743519       36.8113142243  TIP3      547             0.0000000000
     26558       748  TIP3      OH2            13.8764943944      -36.2089652834       20.0221437482  TIP3      548             0.0000000000
     26559       748  TIP3      H1             14.4556460162      -36.6274255729       20.6770815914  TIP3      548             0.0000000000
     26560       748  TIP3      H2             13.0213684034      -36.6691237014       20.1058784636  TIP3      548             0.0000000000
     26561       749  TIP3      OH2            13.1654668156      -35.0609879948       24.8872906210  TIP3      549             0.0000000000
     26562       749  TIP3      H1             13.7423455387      -35.7785889097       25.1919112198  TIP3      549             0.0000000000
     26563       749  TIP3      H2             13.8626247022      -34.3862289354       24.6766261683  TIP3      549             0.0000000000
     26564       750  TIP3      OH2            14.0113399567      -34.0860628993       30.4453813018  TIP3      550             0.0000000000
     26565       750  TIP3      H1             14.9802622464      -33.9342994900       30.4239927623  TIP3      550             0.0000000000
     26566       750  TIP3      H2             13.8378545273      -34.0072244549       31.4006363415  TIP3      550             0.0000000000
     26567       751  TIP3      OH2            14.0620486491      -33.3950567150       33.1740758205  TIP3      551             0.0000000000
     26568       751  TIP3      H1             13.2114037088      -33.0995641905       33.5731264699  TIP3      551             0.0000000000
     26569       751  TIP3      H2             14.5234281186      -32.5564889216       33.0242537400  TIP3      551             0.0000000000
     26570       752  TIP3      OH2            -1.6374174074      -34.8627896057       36.7617287028  TIP3      552             0.0000000000
     26571       752  TIP3      H1             -0.7080575561      -35.0984224974       36.9567464353  TIP3      552             0.0000000000
     26572       752  TIP3      H2             -2.1085429638      -35.6819616967       37.0203823191  TIP3      552             0.0000000000
     26573       753  TIP3      OH2            16.5770754891      -39.2487847512       38.6473172980  TIP3      553             0.0000000000
     26574       753  TIP3      H1             16.6247013241      -39.9993238259       38.0132750320  TIP3      553             0.0000000000
     26575       753  TIP3      H2             16.4502608567      -38.4930108643       38.0377631228  TIP3      553             0.0000000000
     26576       754  TIP3      OH2            14.1214047979      -37.4519499127       25.0306675783  TIP3      554             0.0000000000
     26577       754  TIP3      H1             14.2525558868      -37.8481297454       25.9128515744  TIP3      554             0.0000000000
     26578       754  TIP3      H2             13.4434790084      -38.0256076573       24.6136753101  TIP3      554             0.0000000000
     26579       755  TIP3      OH2            -0.4706972732      -36.5520680365       29.6010452524  TIP3      555             0.0000000000
     26580       755  TIP3      H1             -0.0116835885      -37.3625839917       29.8987291222  TIP3      555             0.0000000000
     26581       755  TIP3      H2              0.0924603593      -35.8596121006       29.9744603531  TIP3      555             0.0000000000
     26582       756  TIP3      OH2            -2.1762682820      -33.5605489457       30.6471408856  TIP3      556             0.0000000000
     26583       756  TIP3      H1             -1.6126673140      -33.8093972292       29.8882918709  TIP3      556             0.0000000000
     26584       756  TIP3      H2             -1.7103143925      -32.7559958425       30.9186569462  TIP3      556             0.0000000000
     26585       757  TIP3      OH2            15.8973464734      -37.2843137480       36.9109273905  TIP3      557             0.0000000000
     26586       757  TIP3      H1             14.9697838660      -36.9754975603       36.8950865854  TIP3      557             0.0000000000
     26587       757  TIP3      H2             15.8863103147      -37.8005627116       36.0981770531  TIP3      557             0.0000000000
     26588       758  TIP3      OH2            15.8066852553      -37.2302223035       21.6519168924  TIP3      558             0.0000000000
     26589       758  TIP3      H1             16.1788094402      -37.9138874033       21.0821565289  TIP3      558             0.0000000000
     26590       758  TIP3      H2             16.5262271213      -36.5755609578       21.6517971293  TIP3      558             0.0000000000
     26591       759  TIP3      OH2            -1.8349215620      -37.3352723546       24.7257503366  TIP3      559             0.0000000000
     26592       759  TIP3      H1             -2.7674626418      -37.1061134571       24.5989861208  TIP3      559             0.0000000000
     26593       759  TIP3      H2             -1.3898300789      -36.8207228891       24.0257197876  TIP3      559             0.0000000000
     26594       760  TIP3      OH2            12.9135136168      -22.3376580936       26.6681517719  TIP3      560             0.0000000000
     26595       760  TIP3      H1             13.5956841227      -22.6814743098       26.0721030454  TIP3      560             0.0000000000
     26596       760  TIP3      H2             13.4287857707      -21.8580037994       27.3387431935  TIP3      560             0.0000000000
     26597       761  TIP3      OH2            -1.8165566521      -38.5929709603       32.9359881590  TIP3      561             0.0000000000
     26598       761  TIP3      H1             -2.4370584853      -38.7418605431       33.6871807889  TIP3      561             0.0000000000
     26599       761  TIP3      H2             -2.3076472242      -37.9265964010       32.4260933476  TIP3      561             0.0000000000
     26600       762  TIP3      OH2             0.3767047018      -25.4564307470       37.1804748164  TIP3      562             0.0000000000
     26601       762  TIP3      H1             -0.4604690187      -25.2286367997       36.7419826478  TIP3      562             0.0000000000
     26602       762  TIP3      H2              0.1072061603      -25.5240674407       38.0992573149  TIP3      562             0.0000000000
     26603       763  TIP3      OH2             3.2744719512      -24.4385263243       33.4611235800  TIP3      563             0.0000000000
     26604       763  TIP3      H1              2.9467551407      -23.5710330376       33.1876125322  TIP3      563             0.0000000000
     26605       763  TIP3      H2              4.2010524961      -24.3568596765       33.1548997700  TIP3      563             0.0000000000
     26606       764  TIP3      OH2             7.5957756444      -23.0163010265       36.3605781259  TIP3      564             0.0000000000
     26607       764  TIP3      H1              7.7322314420      -23.3713313057       37.2706482850  TIP3      564             0.0000000000
     26608       764  TIP3      H2              8.4984968430      -22.7153122309       36.1212999249  TIP3      564             0.0000000000
     26609       765  TIP3      OH2             9.8912466097      -21.7566404524       35.6686216161  TIP3      565             0.0000000000
     26610       765  TIP3      H1             10.6243085311      -22.3384837850       35.4363099856  TIP3      565             0.0000000000
     26611       765  TIP3      H2             10.2583375018      -21.3134841947       36.4643646592  TIP3      565             0.0000000000
     26612       766  TIP3      OH2            15.0880856712      -38.9323859672       34.5491865030  TIP3      566             0.0000000000
     26613       766  TIP3      H1             14.1414381571      -38.7320861438       34.4498091150  TIP3      566             0.0000000000
     26614       766  TIP3      H2             15.2032005743      -39.8673282218       34.3748317545  TIP3      566             0.0000000000
     26615       767  TIP3      OH2             0.6989074135      -21.2075760679       33.4508379311  TIP3      567             0.0000000000
     26616       767  TIP3      H1             -0.0322582218      -20.7041815579       33.0569914266  TIP3      567             0.0000000000
     26617       767  TIP3      H2              0.3899046898      -21.3950178203       34.3488873423  TIP3      567             0.0000000000
     26618       768  TIP3      OH2             3.1665714725      -21.6293865053       32.5276638746  TIP3      568             0.0000000000
     26619       768  TIP3      H1              2.2745686355      -21.4772779217       32.9202031481  TIP3      568             0.0000000000
     26620       768  TIP3      H2              3.1112751507      -21.0358120834       31.7552797032  TIP3      568             0.0000000000
     26621       769  TIP3      OH2             7.8735519081      -21.7173461919       31.6976127510  TIP3      569             0.0000000000
     26622       769  TIP3      H1              7.4114918148      -21.1575618580       31.0504481440  TIP3      569             0.0000000000
     26623       769  TIP3      H2              8.0054749993      -21.0824767889       32.4344167008  TIP3      569             0.0000000000
     26624       770  TIP3      OH2            10.1589725761      -22.9074081955       32.7336089521  TIP3      570             0.0000000000
     26625       770  TIP3      H1              9.3083559666      -22.6307067431       32.3553898605  TIP3      570             0.0000000000
     26626       770  TIP3      H2             10.6410073532      -22.0668187284       32.6439717564  TIP3      570             0.0000000000
     26627       771  TIP3      OH2            12.7147313248      -21.3278934550       32.9346083709  TIP3      571             0.0000000000
     26628       771  TIP3      H1             12.6892511478      -20.3690441446       32.7063165254  TIP3      571             0.0000000000
     26629       771  TIP3      H2             12.9723881340      -21.7122388433       32.0743231954  TIP3      571             0.0000000000
     26630       772  TIP3      OH2             0.1614162145      -22.5563219312       30.3966275812  TIP3      572             0.0000000000
     26631       772  TIP3      H1              0.0775058804      -23.0156522221       31.2586577659  TIP3      572             0.0000000000
     26632       772  TIP3      H2              0.9752006462      -22.9372837163       30.0089694525  TIP3      572             0.0000000000
     26633       773  TIP3      OH2             2.2348313543      -23.8437201753       29.0483821257  TIP3      573             0.0000000000
     26634       773  TIP3      H1              2.0733812477      -24.7759267309       29.2821925975  TIP3      573             0.0000000000
     26635       773  TIP3      H2              3.0899136113      -23.6880572508       29.5024600137  TIP3      573             0.0000000000
     26636       774  TIP3      OH2             4.8251904890      -23.3586218296       29.9257298948  TIP3      574             0.0000000000
     26637       774  TIP3      H1              4.9925118418      -24.2835265045       29.6640970433  TIP3      574             0.0000000000
     26638       774  TIP3      H2              4.8823561207      -23.4140691665       30.8906818333  TIP3      574             0.0000000000
     26639       775  TIP3      OH2             8.2780325396      -37.6822693864       29.0900959561  TIP3      575             0.0000000000
     26640       775  TIP3      H1              7.6353637955      -38.3520290432       29.3804933623  TIP3      575             0.0000000000
     26641       775  TIP3      H2              8.8547204819      -38.2152832911       28.5181431526  TIP3      575             0.0000000000
     26642       776  TIP3      OH2            13.4357102780      -38.8483966461       29.4416341264  TIP3      576             0.0000000000
     26643       776  TIP3      H1             14.0935446356      -38.8979162983       28.6852054632  TIP3      576             0.0000000000
     26644       776  TIP3      H2             12.6437224093      -39.2025070943       28.9835698917  TIP3      576             0.0000000000
     26645       777  TIP3      OH2            15.0819376338      -38.4249648169       27.4062418760  TIP3      577             0.0000000000
     26646       777  TIP3      H1             15.7641672567      -39.0227408154       27.0293420422  TIP3      577             0.0000000000
     26647       777  TIP3      H2             15.5766691477      -37.5720264497       27.4901598768  TIP3      577             0.0000000000
     26648       778  TIP3      OH2             0.5894150643      -39.1372199330       26.9324941114  TIP3      578             0.0000000000
     26649       778  TIP3      H1             -0.1313721231      -39.3192568952       26.3097128467  TIP3      578             0.0000000000
     26650       778  TIP3      H2              1.1103477715      -39.9543056581       26.8502182462  TIP3      578             0.0000000000
     26651       779  TIP3      OH2            -0.5417855713      -39.3212802637       22.6889835398  TIP3      579             0.0000000000
     26652       779  TIP3      H1             -0.0842540947      -38.6912593671       22.1168395830  TIP3      579             0.0000000000
     26653       779  TIP3      H2             -1.1408027020      -38.7462291488       23.1815474338  TIP3      579             0.0000000000
     26654       780  TIP3      OH2             5.0378025144      -38.7248959317       26.6063037745  TIP3      580             0.0000000000
     26655       780  TIP3      H1              6.0006677672      -38.7379187988       26.4919619722  TIP3      580             0.0000000000
     26656       780  TIP3      H2              5.0233913805      -39.2715387025       27.3942671330  TIP3      580             0.0000000000
     26657       781  TIP3      OH2            10.6608832063      -39.0331804775       28.5722892108  TIP3      581             0.0000000000
     26658       781  TIP3      H1             10.7472073471      -38.9263256274       27.5961908692  TIP3      581             0.0000000000
     26659       781  TIP3      H2             10.4920318815      -39.9922861198       28.5473638206  TIP3      581             0.0000000000
     26660       782  TIP3      OH2            12.0751443331      -39.0209345441       24.1312635267  TIP3      582             0.0000000000
     26661       782  TIP3      H1             11.3398403117      -38.4736138599       23.8149051728  TIP3      582             0.0000000000
     26662       782  TIP3      H2             11.7377487925      -39.9344752865       24.0900240418  TIP3      582             0.0000000000
     26663       783  TIP3      OH2            -0.5735773342      -23.3399547373       23.5912307403  TIP3      583             0.0000000000
     26664       783  TIP3      H1             -1.3229683795      -23.4027759624       22.9558663057  TIP3      583             0.0000000000
     26665       783  TIP3      H2             -0.6728585585      -22.4049265222       23.8202227326  TIP3      583             0.0000000000
     26666       784  TIP3      OH2             1.2905074711      -37.4640808502       21.1713927394  TIP3      584             0.0000000000
     26667       784  TIP3      H1              1.8591834476      -38.0010457432       20.6409419560  TIP3      584             0.0000000000
     26668       784  TIP3      H2              1.9233684936      -37.0622611720       21.8002277067  TIP3      584             0.0000000000
     26669       785  TIP3      OH2             6.1169615555      -37.1480142080       23.6619381912  TIP3      585             0.0000000000
     26670       785  TIP3      H1              6.5862274969      -37.7264516582       24.2771975163  TIP3      585             0.0000000000
     26671       785  TIP3      H2              6.3788747343      -36.2772621295       24.0030520215  TIP3      585             0.0000000000
     26672       786  TIP3      OH2             8.1447685592      -22.3125919939       22.0403711751  TIP3      586             0.0000000000
     26673       786  TIP3      H1              8.9937705877      -21.7826478821       21.8950061783  TIP3      586             0.0000000000
     26674       786  TIP3      H2              8.0056352199      -22.4413252496       21.1143064362  TIP3      586             0.0000000000
     26675       787  TIP3      OH2            14.9241565874      -22.5658862361       24.6575042601  TIP3      587             0.0000000000
     26676       787  TIP3      H1             14.6927541042      -23.3923941868       24.1547710708  TIP3      587             0.0000000000
     26677       787  TIP3      H2             14.6212069601      -21.9044545887       24.0148106386  TIP3      587             0.0000000000
     26678       788  TIP3      OH2             0.5014822533      -38.3276640841       36.3454616453  TIP3      588             0.0000000000
     26679       788  TIP3      H1              0.1396372329      -39.1692131518       36.7183077180  TIP3      588             0.0000000000
     26680       788  TIP3      H2              1.4112106212      -38.5023145739       36.6536433374  TIP3      588             0.0000000000
     26681       789  TIP3      OH2             2.7183665690      -39.0519218239       38.0934350236  TIP3      589             0.0000000000
     26682       789  TIP3      H1              3.4742914957      -39.4259987874       37.6028896518  TIP3      589             0.0000000000
     26683       789  TIP3      H2              2.1611800645      -39.8465545186       38.2541807112  TIP3      589             0.0000000000
     26684       790  TIP3      OH2            11.1258901172       40.3625572870       38.1520521206  TIP3      590             0.0000000000
     26685       790  TIP3      H1             10.9988256219       39.6522440330       38.8084176346  TIP3      590             0.0000000000
     26686       790  TIP3      H2             11.8904953488       39.9764833531       37.6934492991  TIP3      590             0.0000000000
     26687       791  TIP3      OH2            14.1509594408      -23.8132519840       36.8062126563  TIP3      591             0.0000000000
     26688       791  TIP3      H1             13.3514187130      -23.9591654596       36.2591306018  TIP3      591             0.0000000000
     26689       791  TIP3      H2             14.0447751706      -22.8652682676       37.0176177942  TIP3      591             0.0000000000
     26690       792  TIP3      OH2            28.6073713359      -29.9432569533       26.7740921581  TIP3      592             0.0000000000
     26691       792  TIP3      H1             28.5908426874      -28.9647742287       26.7260990426  TIP3      592             0.0000000000
     26692       792  TIP3      H2             27.8758580869      -30.1780691558       26.1822494093  TIP3      592             0.0000000000
     26693       793  TIP3      OH2            27.4631330171      -30.6909674351       30.2719132399  TIP3      593             0.0000000000
     26694       793  TIP3      H1             27.4503527217      -31.3402142536       30.9887794600  TIP3      593             0.0000000000
     26695       793  TIP3      H2             27.1123219387      -31.1939540156       29.5208586795  TIP3      593             0.0000000000
     26696       794  TIP3      OH2            19.7556112910      -30.9737060704       31.8696987083  TIP3      594             0.0000000000
     26697       794  TIP3      H1             19.9193044218      -31.7068201591       32.5078308540  TIP3      594             0.0000000000
     26698       794  TIP3      H2             20.5558543820      -30.4456881022       32.0308004241  TIP3      594             0.0000000000
     26699       795  TIP3      OH2            31.1445692442      -27.7427045391       28.5569434057  TIP3      595             0.0000000000
     26700       795  TIP3      H1             30.7333841224      -28.4597704574       29.0497777502  TIP3      595             0.0000000000
     26701       795  TIP3      H2             31.1700451967      -27.0337750866       29.2262399358  TIP3      595             0.0000000000
     26702       796  TIP3      OH2            20.7239880383      -26.5693245632       30.3443922929  TIP3      596             0.0000000000
     26703       796  TIP3      H1             20.4604846072      -27.4346135718       29.9835993873  TIP3      596             0.0000000000
     26704       796  TIP3      H2             21.6845619381      -26.7320770594       30.3797391851  TIP3      596             0.0000000000
     26705       797  TIP3      OH2            17.3893698486      -33.0128565328       25.8362032849  TIP3      597             0.0000000000
     26706       797  TIP3      H1             16.9328218566      -32.1565455043       25.7231494318  TIP3      597             0.0000000000
     26707       797  TIP3      H2             16.8132743332      -33.5198946734       25.2385483633  TIP3      597             0.0000000000
     26708       798  TIP3      OH2            18.1091889743      -30.7650511932       27.9989468647  TIP3      598             0.0000000000
     26709       798  TIP3      H1             18.3682368816      -31.6236018701       28.3819935221  TIP3      598             0.0000000000
     26710       798  TIP3      H2             18.7500380837      -30.6750155646       27.2708082072  TIP3      598             0.0000000000
     26711       799  TIP3      OH2            28.2746088592      -22.5767249201       28.7905921915  TIP3      599             0.0000000000
     26712       799  TIP3      H1             28.9160486554      -23.2692245680       28.4974957448  TIP3      599             0.0000000000
     26713       799  TIP3      H2             28.0512105259      -22.9216731895       29.6587599762  TIP3      599             0.0000000000
     26714       800  TIP3      OH2            25.8357243996      -28.2945900158       30.7450009381  TIP3      600             0.0000000000
     26715       800  TIP3      H1             26.1733521722      -28.9175649956       30.0839178615  TIP3      600             0.0000000000
     26716       800  TIP3      H2             26.6469118579      -28.1329520264       31.2578714104  TIP3      600             0.0000000000
     26717       801  TIP3      OH2            34.5035644379      -36.6632886141       31.4800915493  TIP3      601             0.0000000000
     26718       801  TIP3      H1             34.6123513480      -36.0307835785       32.2267684535  TIP3      601             0.0000000000
     26719       801  TIP3      H2             35.0042434160      -36.2032407496       30.7858199810  TIP3      601             0.0000000000
     26720       802  TIP3      OH2            29.0039776340      -33.8323816501       31.0663393829  TIP3      602             0.0000000000
     26721       802  TIP3      H1             29.1745840889      -34.7978838257       31.0606760389  TIP3      602             0.0000000000
     26722       802  TIP3      H2             28.9011325722      -33.6783529377       30.1070175402  TIP3      602             0.0000000000
     26723       803  TIP3      OH2            22.1860072553      -35.7513177426       28.2037942710  TIP3      603             0.0000000000
     26724       803  TIP3      H1             22.1809941777      -34.8548487386       27.8038188302  TIP3      603             0.0000000000
     26725       803  TIP3      H2             21.6297171030      -36.2767423557       27.5926259597  TIP3      603             0.0000000000
     26726       804  TIP3      OH2            29.8753258592      -35.6845291797       26.6234886953  TIP3      604             0.0000000000
     26727       804  TIP3      H1             30.5143101992      -35.9527233661       27.3252970768  TIP3      604             0.0000000000
     26728       804  TIP3      H2             30.4112880813      -35.0729683735       26.0967561599  TIP3      604             0.0000000000
     26729       805  TIP3      OH2            18.7225487361      -33.3070133726       29.0020581025  TIP3      605             0.0000000000
     26730       805  TIP3      H1             19.4031795517      -33.8564026982       29.4479545410  TIP3      605             0.0000000000
     26731       805  TIP3      H2             18.8261284944      -33.6254776397       28.0875387211  TIP3      605             0.0000000000
     26732       806  TIP3      OH2            23.8888020501      -31.7791755765       28.3450704225  TIP3      606             0.0000000000
     26733       806  TIP3      H1             24.5787883357      -32.3426507319       28.7345980757  TIP3      606             0.0000000000
     26734       806  TIP3      H2             23.3817412616      -32.4256068993       27.8292883245  TIP3      606             0.0000000000
     26735       807  TIP3      OH2            34.9220751801      -35.2407270412       33.7460802900  TIP3      607             0.0000000000
     26736       807  TIP3      H1             34.2808986269      -34.5069070968       33.6103000809  TIP3      607             0.0000000000
     26737       807  TIP3      H2             34.9265736317      -35.2871340737       34.7105161486  TIP3      607             0.0000000000
     26738       808  TIP3      OH2            21.0376553020      -36.8164847596       32.3231181214  TIP3      608             0.0000000000
     26739       808  TIP3      H1             20.7340047173      -36.2921890858       31.5560791948  TIP3      608             0.0000000000
     26740       808  TIP3      H2             20.3334671784      -36.6110533591       32.9909238330  TIP3      608             0.0000000000
     26741       809  TIP3      OH2            28.2977559894      -27.3422787210       25.8664689551  TIP3      609             0.0000000000
     26742       809  TIP3      H1             28.0495706378      -27.5944747594       24.9647516074  TIP3      609             0.0000000000
     26743       809  TIP3      H2             28.0181782587      -26.3997145970       25.8894400514  TIP3      609             0.0000000000
     26744       810  TIP3      OH2            23.5372363666      -29.1910541214       32.5473148446  TIP3      610             0.0000000000
     26745       810  TIP3      H1             22.8333324012      -28.5452710912       32.7717390221  TIP3      610             0.0000000000
     26746       810  TIP3      H2             24.2445713911      -28.5922051949       32.2597164139  TIP3      610             0.0000000000
     26747       811  TIP3      OH2            31.6467275745      -36.2632611882       28.6384603206  TIP3      611             0.0000000000
     26748       811  TIP3      H1             31.4792082510      -37.0718602082       29.1530488173  TIP3      611             0.0000000000
     26749       811  TIP3      H2             32.3337999219      -35.8563462347       29.1888468598  TIP3      611             0.0000000000
     26750       812  TIP3      OH2            20.5935664434      -34.9513620652       30.3104447703  TIP3      612             0.0000000000
     26751       812  TIP3      H1             21.2215824461      -34.2892188175       30.6767530006  TIP3      612             0.0000000000
     26752       812  TIP3      H2             21.1350245419      -35.3779636249       29.6133136562  TIP3      612             0.0000000000
     26753       813  TIP3      OH2            21.9919197344      -27.1813704810       33.3744972986  TIP3      613             0.0000000000
     26754       813  TIP3      H1             21.9393967855      -26.2691313974       33.0328965924  TIP3      613             0.0000000000
     26755       813  TIP3      H2             21.1149834086      -27.2662913173       33.8260834210  TIP3      613             0.0000000000
     26756       814  TIP3      OH2            18.0114725184      -27.5774788640       24.1770134721  TIP3      614             0.0000000000
     26757       814  TIP3      H1             17.8891802103      -27.2208219625       23.3097228881  TIP3      614             0.0000000000
     26758       814  TIP3      H2             18.1779676248      -26.7646032746       24.6993023175  TIP3      614             0.0000000000
     26759       815  TIP3      OH2            31.6732573983      -25.9023108387       30.9226974544  TIP3      615             0.0000000000
     26760       815  TIP3      H1             30.7053098967      -25.7881025404       31.0408432534  TIP3      615             0.0000000000
     26761       815  TIP3      H2             31.9437643200      -24.9875042827       30.7182787469  TIP3      615             0.0000000000
     26762       816  TIP3      OH2            32.0335692368      -37.6179627694       32.3997160000  TIP3      616             0.0000000000
     26763       816  TIP3      H1             31.2734574311      -37.0530636907       32.2083518825  TIP3      616             0.0000000000
     26764       816  TIP3      H2             32.7003842701      -37.2371015502       31.7929570417  TIP3      616             0.0000000000
     26765       817  TIP3      OH2            24.9878005320      -39.4771861632       29.8547933825  TIP3      617             0.0000000000
     26766       817  TIP3      H1             24.8794559100      -40.4375612682       29.9020238350  TIP3      617             0.0000000000
     26767       817  TIP3      H2             24.1037792882      -39.1676634922       30.1204155156  TIP3      617             0.0000000000
     26768       818  TIP3      OH2            29.9432835099      -24.1250612545       27.5250239814  TIP3      618             0.0000000000
     26769       818  TIP3      H1             30.3618462516      -24.8406270025       27.0042750644  TIP3      618             0.0000000000
     26770       818  TIP3      H2             30.3673475442      -23.3355854898       27.1221095173  TIP3      618             0.0000000000
     26771       819  TIP3      OH2            31.1732211677      -26.2007119847       26.0392918209  TIP3      619             0.0000000000
     26772       819  TIP3      H1             30.8328873996      -26.8755924869       25.4265550116  TIP3      619             0.0000000000
     26773       819  TIP3      H2             31.1781348646      -26.6936886375       26.8767415312  TIP3      619             0.0000000000
     26774       820  TIP3      OH2            32.7669424150      -27.5954639756       34.5226639063  TIP3      620             0.0000000000
     26775       820  TIP3      H1             32.9100429922      -28.2505324143       33.8046322855  TIP3      620             0.0000000000
     26776       820  TIP3      H2             32.9709091812      -26.7523071702       34.0822139898  TIP3      620             0.0000000000
     26777       821  TIP3      OH2            27.2518881241      -30.7300239325       24.2730356125  TIP3      621             0.0000000000
     26778       821  TIP3      H1             26.5756692044      -30.1046187513       23.9590718188  TIP3      621             0.0000000000
     26779       821  TIP3      H2             27.9800241152      -30.6099818070       23.6273338855  TIP3      621             0.0000000000
     26780       822  TIP3      OH2            34.6447757677      -31.2768780790       32.5638368055  TIP3      622             0.0000000000
     26781       822  TIP3      H1             33.9865589844      -30.5563555552       32.6057866338  TIP3      622             0.0000000000
     26782       822  TIP3      H2             35.1453463439      -31.0345977010       31.7602796220  TIP3      622             0.0000000000
     26783       823  TIP3      OH2            30.7029264384      -30.5204356206       25.2071110029  TIP3      623             0.0000000000
     26784       823  TIP3      H1             29.9777250089      -30.2492435014       25.8210582683  TIP3      623             0.0000000000
     26785       823  TIP3      H2             31.1955767830      -31.1551403831       25.7552723559  TIP3      623             0.0000000000
     26786       824  TIP3      OH2            30.6367016433      -32.3369533573       34.3357881989  TIP3      624             0.0000000000
     26787       824  TIP3      H1             30.6505435258      -31.5197267728       34.8627959652  TIP3      624             0.0000000000
     26788       824  TIP3      H2             30.0100203566      -32.0404562200       33.6423518270  TIP3      624             0.0000000000
     26789       825  TIP3      OH2            22.3250581748      -29.8402916710       27.1151515179  TIP3      625             0.0000000000
     26790       825  TIP3      H1             22.0062619773      -30.2198776786       26.2587604123  TIP3      625             0.0000000000
     26791       825  TIP3      H2             22.9379356565      -30.5302258232       27.4547205608  TIP3      625             0.0000000000
     26792       826  TIP3      OH2            23.6337744383      -26.4597303786       29.8065380819  TIP3      626             0.0000000000
     26793       826  TIP3      H1             23.6357517953      -26.9774428414       28.9923254169  TIP3      626             0.0000000000
     26794       826  TIP3      H2             24.4227476629      -26.8103308256       30.2608045442  TIP3      626             0.0000000000
     26795       827  TIP3      OH2            22.6413498033      -31.0892290318       30.7879471410  TIP3      627             0.0000000000
     26796       827  TIP3      H1             23.1943581655      -30.9966273093       29.9860416749  TIP3      627             0.0000000000
     26797       827  TIP3      H2             23.0413389790      -30.4275092899       31.3960964553  TIP3      627             0.0000000000
     26798       828  TIP3      OH2            29.0731135428      -25.5179381678       31.4980828766  TIP3      628             0.0000000000
     26799       828  TIP3      H1             28.7851404379      -24.8844498140       32.1632607264  TIP3      628             0.0000000000
     26800       828  TIP3      H2             28.8133592065      -26.3716369008       31.9153036265  TIP3      628             0.0000000000
     26801       829  TIP3      OH2            23.6041058733      -26.6623863714       35.4834499287  TIP3      629             0.0000000000
     26802       829  TIP3      H1             23.1883913442      -25.9213923478       35.9719210094  TIP3      629             0.0000000000
     26803       829  TIP3      H2             22.9327597225      -26.8605490731       34.7845210312  TIP3      629             0.0000000000
     26804       830  TIP3      OH2            29.5641749558      -31.2717818096       22.8643801242  TIP3      630             0.0000000000
     26805       830  TIP3      H1             30.1115115247      -31.1251218068       23.6773963971  TIP3      630             0.0000000000
     26806       830  TIP3      H2             30.0387928977      -30.7870273813       22.1792932987  TIP3      630             0.0000000000
     26807       831  TIP3      OH2            20.5605658948      -30.4963261283       34.6531269857  TIP3      631             0.0000000000
     26808       831  TIP3      H1             20.5963804056      -29.8272493251       35.3614084517  TIP3      631             0.0000000000
     26809       831  TIP3      H2             19.6171402768      -30.4225676514       34.4509654434  TIP3      631             0.0000000000
     26810       832  TIP3      OH2            27.3110231862      -24.5641760753       26.3204220221  TIP3      632             0.0000000000
     26811       832  TIP3      H1             27.7337822899      -24.2624271984       27.1332670805  TIP3      632             0.0000000000
     26812       832  TIP3      H2             26.7332562979      -23.8264491380       26.0978996284  TIP3      632             0.0000000000
     26813       833  TIP3      OH2            21.8601164239      -24.6407527895       36.2358486115  TIP3      633             0.0000000000
     26814       833  TIP3      H1             21.7759350341      -24.7271625661       35.2710222785  TIP3      633             0.0000000000
     26815       833  TIP3      H2             20.9266982049      -24.7576740654       36.5172404967  TIP3      633             0.0000000000
     26816       834  TIP3      OH2            33.3366940838      -39.5330134842       22.8204203670  TIP3      634             0.0000000000
     26817       834  TIP3      H1             32.3927167347      -39.4572874927       23.0408167842  TIP3      634             0.0000000000
     26818       834  TIP3      H2             33.5132204869      -38.7252981776       22.3207488458  TIP3      634             0.0000000000
     26819       835  TIP3      OH2            21.2758968817      -30.8303611958       24.7664252918  TIP3      635             0.0000000000
     26820       835  TIP3      H1             21.0384381908      -30.0533226079       24.2250763569  TIP3      635             0.0000000000
     26821       835  TIP3      H2             20.6113491780      -31.4748648777       24.4949611828  TIP3      635             0.0000000000
     26822       836  TIP3      OH2            17.3978473567      -28.4000084812       33.5561914143  TIP3      636             0.0000000000
     26823       836  TIP3      H1             17.0848455836      -28.6107301456       32.6857249486  TIP3      636             0.0000000000
     26824       836  TIP3      H2             17.5167820721      -29.3190047800       33.9175102310  TIP3      636             0.0000000000
     26825       837  TIP3      OH2            17.1775135711      -25.6314538881       30.5001085546  TIP3      637             0.0000000000
     26826       837  TIP3      H1             18.1359802188      -25.7047672314       30.3446448759  TIP3      637             0.0000000000
     26827       837  TIP3      H2             17.1131652821      -24.7459860734       30.8893176244  TIP3      637             0.0000000000
     26828       838  TIP3      OH2            35.3974724320      -24.9353224836       36.1100793048  TIP3      638             0.0000000000
     26829       838  TIP3      H1             35.2763637956      -25.8957919502       36.0713031065  TIP3      638             0.0000000000
     26830       838  TIP3      H2             34.5268613727      -24.6920725272       36.4922789203  TIP3      638             0.0000000000
     26831       839  TIP3      OH2            26.3434356381      -25.3997620457       34.9659011829  TIP3      639             0.0000000000
     26832       839  TIP3      H1             26.3942618811      -24.5574640794       35.4808460045  TIP3      639             0.0000000000
     26833       839  TIP3      H2             25.4778072311      -25.7672240459       35.2218719839  TIP3      639             0.0000000000
     26834       840  TIP3      OH2            26.7429181643      -21.6491892662       24.7640925673  TIP3      640             0.0000000000
     26835       840  TIP3      H1             26.6865036996      -21.7260292036       23.7975027769  TIP3      640             0.0000000000
     26836       840  TIP3      H2             26.7936830769      -20.6904311609       24.9329142832  TIP3      640             0.0000000000
     26837       841  TIP3      OH2            20.3906235329      -22.7635904391       26.5951162432  TIP3      641             0.0000000000
     26838       841  TIP3      H1             20.5777164059      -23.1960440072       27.4601381923  TIP3      641             0.0000000000
     26839       841  TIP3      H2             19.5695572731      -23.2144547229       26.3480085585  TIP3      641             0.0000000000
     26840       842  TIP3      OH2            29.5213041767      -22.4662514271       24.5725206590  TIP3      642             0.0000000000
     26841       842  TIP3      H1             28.5565515373      -22.4411198771       24.7155770849  TIP3      642             0.0000000000
     26842       842  TIP3      H2             29.7709588754      -23.2532508965       25.0843917573  TIP3      642             0.0000000000
     26843       843  TIP3      OH2            32.5256203801      -33.4625766253       36.5777263189  TIP3      643             0.0000000000
     26844       843  TIP3      H1             32.0488799954      -33.0156377269       35.8589056670  TIP3      643             0.0000000000
     26845       843  TIP3      H2             32.5102137936      -34.3884878022       36.2768982490  TIP3      643             0.0000000000
     26846       844  TIP3      OH2            19.6428555724      -27.0772475930       34.5615859517  TIP3      644             0.0000000000
     26847       844  TIP3      H1             19.8767886759      -27.4173385740       35.4529007394  TIP3      644             0.0000000000
     26848       844  TIP3      H2             18.7902974988      -27.4978260488       34.3891478787  TIP3      644             0.0000000000
     26849       845  TIP3      OH2            22.3965957317      -38.5753747479       30.5572691449  TIP3      645             0.0000000000
     26850       845  TIP3      H1             21.5018024708      -38.6953447859       30.1706595099  TIP3      645             0.0000000000
     26851       845  TIP3      H2             22.2235548637      -37.7744775897       31.0675415435  TIP3      645             0.0000000000
     26852       846  TIP3      OH2            26.9177335988      -38.6381196087       34.1518549137  TIP3      646             0.0000000000
     26853       846  TIP3      H1             27.3927190128      -39.3363642714       34.6220974150  TIP3      646             0.0000000000
     26854       846  TIP3      H2             26.0180662691      -39.0229231397       34.0335919983  TIP3      646             0.0000000000
     26855       847  TIP3      OH2            30.2714869792      -35.1101075909       34.7821133047  TIP3      647             0.0000000000
     26856       847  TIP3      H1             29.7085096218      -35.2714807737       35.5751828078  TIP3      647             0.0000000000
     26857       847  TIP3      H2             30.1067482020      -34.1793757396       34.5488854878  TIP3      647             0.0000000000
     26858       848  TIP3      OH2            22.4527448355      -33.6190060374       31.7892638031  TIP3      648             0.0000000000
     26859       848  TIP3      H1             21.7212352300      -33.6316717504       32.4280753344  TIP3      648             0.0000000000
     26860       848  TIP3      H2             22.4041034251      -32.7126338525       31.4089034965  TIP3      648             0.0000000000
     26861       849  TIP3      OH2            22.4161292299      -33.6213315458       26.6552710766  TIP3      649             0.0000000000
     26862       849  TIP3      H1             21.4544318763      -33.7233997714       26.4837639222  TIP3      649             0.0000000000
     26863       849  TIP3      H2             22.7705470554      -33.7367786054       25.7547988759  TIP3      649             0.0000000000
     26864       850  TIP3      OH2            27.8708349194      -33.0551986515       25.3502190208  TIP3      650             0.0000000000
     26865       850  TIP3      H1             27.5397930465      -32.1718486260       25.0745995021  TIP3      650             0.0000000000
     26866       850  TIP3      H2             28.6379594371      -33.1774139053       24.7670653305  TIP3      650             0.0000000000
     26867       851  TIP3      OH2            26.9855752431      -32.7826762643       36.8492978242  TIP3      651             0.0000000000
     26868       851  TIP3      H1             26.4634157989      -33.5674006653       37.1521492585  TIP3      651             0.0000000000
     26869       851  TIP3      H2             27.8224488496      -32.9106513738       37.3269609512  TIP3      651             0.0000000000
     26870       852  TIP3      OH2            28.9653061752      -33.5101208666       28.2572126950  TIP3      652             0.0000000000
     26871       852  TIP3      H1             28.6806645580      -32.9542941240       27.5130808760  TIP3      652             0.0000000000
     26872       852  TIP3      H2             29.0649053037      -34.3673187700       27.8030905249  TIP3      652             0.0000000000
     26873       853  TIP3      OH2            20.0534073106      -33.3499335870       33.4684695545  TIP3      653             0.0000000000
     26874       853  TIP3      H1             20.1442184984      -32.9527638172       34.3530660536  TIP3      653             0.0000000000
     26875       853  TIP3      H2             19.6242778307      -34.1948475070       33.6688866522  TIP3      653             0.0000000000
     26876       854  TIP3      OH2            16.6983723248      -36.2864217490       27.4464777224  TIP3      654             0.0000000000
     26877       854  TIP3      H1             17.3964873077      -36.2396985741       28.1238681579  TIP3      654             0.0000000000
     26878       854  TIP3      H2             17.1637932027      -36.5897040448       26.6492508106  TIP3      654             0.0000000000
     26879       855  TIP3      OH2            18.0726418962      -35.6463387604       22.8299016513  TIP3      655             0.0000000000
     26880       855  TIP3      H1             18.4922946554      -34.9598257426       22.2468995496  TIP3      655             0.0000000000
     26881       855  TIP3      H2             17.3638145118      -34.9938231811       23.0972983518  TIP3      655             0.0000000000
     26882       856  TIP3      OH2            28.1527828736      -31.9254097191       32.8104085724  TIP3      656             0.0000000000
     26883       856  TIP3      H1             28.5381091547      -32.6144980843       32.2275726455  TIP3      656             0.0000000000
     26884       856  TIP3      H2             27.6921492675      -32.4554319800       33.4860607638  TIP3      656             0.0000000000
     26885       857  TIP3      OH2            24.9022063903      -36.0307314628       27.6363008928  TIP3      657             0.0000000000
     26886       857  TIP3      H1             24.0168667904      -35.9265364873       28.0580548215  TIP3      657             0.0000000000
     26887       857  TIP3      H2             25.4653673706      -36.1065446991       28.4358552884  TIP3      657             0.0000000000
     26888       858  TIP3      OH2            19.8063282855      -34.4098399524       26.5078360526  TIP3      658             0.0000000000
     26889       858  TIP3      H1             18.9043186449      -34.2370750749       26.1452115679  TIP3      658             0.0000000000
     26890       858  TIP3      H2             20.0434169847      -35.2513666781       26.0968869594  TIP3      658             0.0000000000
     26891       859  TIP3      OH2            23.4091854095      -34.3653234069       24.1374209805  TIP3      659             0.0000000000
     26892       859  TIP3      H1             24.3627297491      -34.2242530733       24.2878932983  TIP3      659             0.0000000000
     26893       859  TIP3      H2             23.1695656434      -33.6716643217       23.4989173026  TIP3      659             0.0000000000
     26894       860  TIP3      OH2            29.3757560719      -36.7601160330       30.8959915163  TIP3      660             0.0000000000
     26895       860  TIP3      H1             28.6913232462      -36.6521545086       31.5980400688  TIP3      660             0.0000000000
     26896       860  TIP3      H2             28.8710797113      -37.0125224110       30.1088301317  TIP3      660             0.0000000000
     26897       861  TIP3      OH2            32.5662012986      -21.0720720485       37.2159091286  TIP3      661             0.0000000000
     26898       861  TIP3      H1             32.8349003691      -20.6916023624       36.3617060323  TIP3      661             0.0000000000
     26899       861  TIP3      H2             33.2914113143      -20.7559069331       37.7748022548  TIP3      661             0.0000000000
     26900       862  TIP3      OH2            20.2405018986      -28.5749829895       36.7589402310  TIP3      662             0.0000000000
     26901       862  TIP3      H1             20.9556344388      -28.3644486705       37.3848533558  TIP3      662             0.0000000000
     26902       862  TIP3      H2             19.4759001651      -28.5505817802       37.3892813299  TIP3      662             0.0000000000
     26903       863  TIP3      OH2            26.2210073423      -33.2256220061       29.5165985560  TIP3      663             0.0000000000
     26904       863  TIP3      H1             26.8783661561      -33.7377044697       29.0329988091  TIP3      663             0.0000000000
     26905       863  TIP3      H2             26.1039397897      -33.7339370376       30.3311074033  TIP3      663             0.0000000000
     26906       864  TIP3      OH2            21.2720085557      -37.0995143279       26.0063773488  TIP3      664             0.0000000000
     26907       864  TIP3      H1             20.8411701393      -37.9805575350       26.0085776318  TIP3      664             0.0000000000
     26908       864  TIP3      H2             21.8143967921      -37.1535285991       25.2207478435  TIP3      664             0.0000000000
     26909       865  TIP3      OH2            24.8975909008      -34.8606718696       31.9465452248  TIP3      665             0.0000000000
     26910       865  TIP3      H1             24.0613581289      -34.3592023486       32.0517906041  TIP3      665             0.0000000000
     26911       865  TIP3      H2             25.4441996480      -34.5294797630       32.6835629986  TIP3      665             0.0000000000
     26912       866  TIP3      OH2            25.4853064079      -28.6735259655       23.6576417586  TIP3      666             0.0000000000
     26913       866  TIP3      H1             24.6622091370      -29.0983227856       23.3092871883  TIP3      666             0.0000000000
     26914       866  TIP3      H2             25.2406605604      -28.5009392065       24.5861376957  TIP3      666             0.0000000000
     26915       867  TIP3      OH2            32.6700678901      -29.4409297682       32.4593945249  TIP3      667             0.0000000000
     26916       867  TIP3      H1             33.2232111868      -28.9558465282       31.8222661412  TIP3      667             0.0000000000
     26917       867  TIP3      H2             31.8061078971      -29.3997322239       32.0001630450  TIP3      667             0.0000000000
     26918       868  TIP3      OH2            29.3057283009      -35.7745493258       21.7643482392  TIP3      668             0.0000000000
     26919       868  TIP3      H1             28.3574222114      -35.6855714475       21.7399381715  TIP3      668             0.0000000000
     26920       868  TIP3      H2             29.6525989988      -34.9617972735       22.1950428849  TIP3      668             0.0000000000
     26921       869  TIP3      OH2            26.9617512729      -28.3805580124       34.8926969535  TIP3      669             0.0000000000
     26922       869  TIP3      H1             26.6173879465      -28.8036837120       35.6880926941  TIP3      669             0.0000000000
     26923       869  TIP3      H2             26.7103983549      -27.4564902093       35.0064500841  TIP3      669             0.0000000000
     26924       870  TIP3      OH2            30.0383655202      -33.9104674159       23.4975382255  TIP3      670             0.0000000000
     26925       870  TIP3      H1             30.9336831383      -34.0351910042       23.8776583274  TIP3      670             0.0000000000
     26926       870  TIP3      H2             30.1338881510      -33.0943503815       22.9770481474  TIP3      670             0.0000000000
     26927       871  TIP3      OH2            20.5730634345      -29.2514138650       29.4728539263  TIP3      671             0.0000000000
     26928       871  TIP3      H1             21.2397090447      -29.3232581143       28.7620011039  TIP3      671             0.0000000000
     26929       871  TIP3      H2             20.6684979753      -30.1113139168       29.9133927439  TIP3      671             0.0000000000
     26930       872  TIP3      OH2            27.6089923907      -27.1956351210       22.7732829794  TIP3      672             0.0000000000
     26931       872  TIP3      H1             27.2412927763      -26.3162448338       22.9867260433  TIP3      672             0.0000000000
     26932       872  TIP3      H2             26.8244037558      -27.7624248977       22.8931454712  TIP3      672             0.0000000000
     26933       873  TIP3      OH2            17.5661701894      -30.8450910408       34.6887112209  TIP3      673             0.0000000000
     26934       873  TIP3      H1             17.7488962270      -31.2496228091       35.5659965090  TIP3      673             0.0000000000
     26935       873  TIP3      H2             16.9617341067      -31.4978873305       34.3033990019  TIP3      673             0.0000000000
     26936       874  TIP3      OH2            24.5855256763      -31.2899788151       36.8940484381  TIP3      674             0.0000000000
     26937       874  TIP3      H1             24.2656191455      -31.5969850427       36.0335421975  TIP3      674             0.0000000000
     26938       874  TIP3      H2             25.5091898756      -31.6129603194       36.8901503454  TIP3      674             0.0000000000
     26939       875  TIP3      OH2            29.2727022070      -25.9514341877       34.8463442944  TIP3      675             0.0000000000
     26940       875  TIP3      H1             28.3468586637      -25.7726990577       34.6155539429  TIP3      675             0.0000000000
     26941       875  TIP3      H2             29.2396374312      -25.6601929584       35.7795708867  TIP3      675             0.0000000000
     26942       876  TIP3      OH2            34.9192585243      -33.7721008276       23.2765671516  TIP3      676             0.0000000000
     26943       876  TIP3      H1             34.4022115592      -34.1117338140       22.5327022095  TIP3      676             0.0000000000
     26944       876  TIP3      H2             35.0265329052      -32.8396047083       22.9814343391  TIP3      676             0.0000000000
     26945       877  TIP3      OH2            34.9180191354      -27.9284836600       36.0462308501  TIP3      677             0.0000000000
     26946       877  TIP3      H1             34.0336910770      -27.6991956440       35.6720147717  TIP3      677             0.0000000000
     26947       877  TIP3      H2             35.4707361450      -27.9504898648       35.2359693694  TIP3      677             0.0000000000
     26948       878  TIP3      OH2            33.2429061334      -24.9525817426       23.6760512978  TIP3      678             0.0000000000
     26949       878  TIP3      H1             32.8417011920      -25.7709223895       23.9764782266  TIP3      678             0.0000000000
     26950       878  TIP3      H2             33.5213019121      -25.1062526492       22.7666694101  TIP3      678             0.0000000000
     26951       879  TIP3      OH2            30.4455379496      -30.1280597613       30.7399029648  TIP3      679             0.0000000000
     26952       879  TIP3      H1             29.5015171947      -30.3340830313       30.6269538286  TIP3      679             0.0000000000
     26953       879  TIP3      H2             30.8708094827      -30.8873984850       30.3017188820  TIP3      679             0.0000000000
     26954       880  TIP3      OH2            22.9416959831      -25.8023822244       26.8430539776  TIP3      680             0.0000000000
     26955       880  TIP3      H1             23.4505444094      -24.9968767220       26.6362588212  TIP3      680             0.0000000000
     26956       880  TIP3      H2             22.0718529100      -25.5617249017       26.5033590615  TIP3      680             0.0000000000
     26957       881  TIP3      OH2            24.3768381433      -28.1319902059       26.3630791564  TIP3      681             0.0000000000
     26958       881  TIP3      H1             24.0652782785      -27.2114116256       26.4577337529  TIP3      681             0.0000000000
     26959       881  TIP3      H2             23.6511789582      -28.6214584730       26.7951309681  TIP3      681             0.0000000000
     26960       882  TIP3      OH2            24.8095221304      -23.9443967733       32.7742690091  TIP3      682             0.0000000000
     26961       882  TIP3      H1             25.2772529341      -23.1450298402       32.4827016169  TIP3      682             0.0000000000
     26962       882  TIP3      H2             25.4321580057      -24.2894372566       33.4411596534  TIP3      682             0.0000000000
     26963       883  TIP3      OH2            23.0418325918      -23.1600079254       25.9254478570  TIP3      683             0.0000000000
     26964       883  TIP3      H1             22.0811874470      -23.0080811951       26.0426728855  TIP3      683             0.0000000000
     26965       883  TIP3      H2             23.4110107514      -22.3079334518       26.2223083921  TIP3      683             0.0000000000
     26966       884  TIP3      OH2            28.3371581379      -27.9540694113       32.3840976997  TIP3      684             0.0000000000
     26967       884  TIP3      H1             28.0205708435      -28.1422128148       33.2924699085  TIP3      684             0.0000000000
     26968       884  TIP3      H2             28.9831182032      -28.6594539179       32.2188808474  TIP3      684             0.0000000000
     26969       885  TIP3      OH2            30.6637099841      -27.0445301557       21.4641462065  TIP3      685             0.0000000000
     26970       885  TIP3      H1             30.9118449377      -27.3389513811       22.3470919789  TIP3      685             0.0000000000
     26971       885  TIP3      H2             29.6958119086      -26.9767536477       21.5548602923  TIP3      685             0.0000000000
     26972       886  TIP3      OH2            31.1652169782      -23.3665360844       34.8725191996  TIP3      686             0.0000000000
     26973       886  TIP3      H1             30.4709596748      -23.8602359283       34.3964160292  TIP3      686             0.0000000000
     26974       886  TIP3      H2             31.3460618107      -22.6662838428       34.2111336635  TIP3      686             0.0000000000
     26975       887  TIP3      OH2            35.2101128450      -22.4875926725       21.8211454163  TIP3      687             0.0000000000
     26976       887  TIP3      H1             35.8588740363      -21.8859324072       21.4566348768  TIP3      687             0.0000000000
     26977       887  TIP3      H2             34.4348736303      -21.9210158654       21.9870981214  TIP3      687             0.0000000000
     26978       888  TIP3      OH2            19.1990570386      -36.1466346347       34.2372641127  TIP3      688             0.0000000000
     26979       888  TIP3      H1             18.3046762532      -35.7673729565       34.2567055839  TIP3      688             0.0000000000
     26980       888  TIP3      H2             19.1028467999      -36.9655103264       34.7598500821  TIP3      688             0.0000000000
     26981       889  TIP3      OH2            31.4727937922      -28.2531196797       23.7765455763  TIP3      689             0.0000000000
     26982       889  TIP3      H1             31.2163523350      -29.0634229927       24.2584333355  TIP3      689             0.0000000000
     26983       889  TIP3      H2             32.4261987679      -28.2153370687       23.9282089844  TIP3      689             0.0000000000
     26984       890  TIP3      OH2            18.8242699150      -24.3478439094       32.6983858315  TIP3      690             0.0000000000
     26985       890  TIP3      H1             19.1957431938      -25.2413372225       32.7089193975  TIP3      690             0.0000000000
     26986       890  TIP3      H2             19.1009811760      -24.0234561337       33.5673452112  TIP3      690             0.0000000000
     26987       891  TIP3      OH2            24.8773143426      -25.8524995594       20.0100768877  TIP3      691             0.0000000000
     26988       891  TIP3      H1             24.9442070538      -26.5764725557       19.3897460865  TIP3      691             0.0000000000
     26989       891  TIP3      H2             24.3747051377      -26.2130011347       20.7664368917  TIP3      691             0.0000000000
     26990       892  TIP3      OH2            23.5946118443      -26.2694402877       22.4216067827  TIP3      692             0.0000000000
     26991       892  TIP3      H1             23.8291001497      -26.8009200566       23.1873283535  TIP3      692             0.0000000000
     26992       892  TIP3      H2             23.6398177036      -25.3410910500       22.7237101507  TIP3      692             0.0000000000
     26993       893  TIP3      OH2            27.9628279911      -36.3378880883       33.2312747081  TIP3      693             0.0000000000
     26994       893  TIP3      H1             28.6816637264      -36.3150625145       33.8748716923  TIP3      693             0.0000000000
     26995       893  TIP3      H2             27.5495390567      -37.2127929719       33.4210251580  TIP3      693             0.0000000000
     26996       894  TIP3      OH2            28.7482168411      -36.7909148991       24.3343043555  TIP3      694             0.0000000000
     26997       894  TIP3      H1             28.9305729963      -36.2833458440       23.5259090881  TIP3      694             0.0000000000
     26998       894  TIP3      H2             29.2728648187      -36.2776278697       24.9735710005  TIP3      694             0.0000000000
     26999       895  TIP3      OH2            26.4071406273      -24.5816283333       23.1659050273  TIP3      695             0.0000000000
     27000       895  TIP3      H1             25.5601170275      -24.0989168318       23.1919980488  TIP3      695             0.0000000000
     27001       895  TIP3      H2             26.9311522264      -24.1179784170       22.4960972707  TIP3      695             0.0000000000
     27002       896  TIP3      OH2            25.8857139342      -35.0199479854       25.1171890046  TIP3      696             0.0000000000
     27003       896  TIP3      H1             26.7021101104      -34.4629304018       25.1331631253  TIP3      696             0.0000000000
     27004       896  TIP3      H2             25.7177238315      -35.1026696462       26.0705829886  TIP3      696             0.0000000000
     27005       897  TIP3      OH2            26.4846826903      -34.0001292890       34.3286550488  TIP3      697             0.0000000000
     27006       897  TIP3      H1             26.5670352623      -33.4501895927       35.1330100217  TIP3      697             0.0000000000
     27007       897  TIP3      H2             27.1377084479      -34.7091404838       34.4197894163  TIP3      697             0.0000000000
     27008       898  TIP3      OH2            26.6699095679      -37.9293908515       26.0089493720  TIP3      698             0.0000000000
     27009       898  TIP3      H1             26.4946634954      -37.2968515571       26.7265672064  TIP3      698             0.0000000000
     27010       898  TIP3      H2             27.4395257748      -37.4838601899       25.5735381340  TIP3      698             0.0000000000
     27011       899  TIP3      OH2            23.8107974500      -23.5737008663       23.1820423257  TIP3      699             0.0000000000
     27012       899  TIP3      H1             23.9123990859      -22.7515407175       22.6452916128  TIP3      699             0.0000000000
     27013       899  TIP3      H2             23.4852519526      -23.2237246341       24.0307936385  TIP3      699             0.0000000000
     27014       900  TIP3      OH2            22.3927447813      -36.8662762457       22.8771889466  TIP3      700             0.0000000000
     27015       900  TIP3      H1             22.3665849172      -35.9175231490       23.0572492054  TIP3      700             0.0000000000
     27016       900  TIP3      H2             23.3464321858      -37.0559555721       22.9327223952  TIP3      700             0.0000000000
     27017       901  TIP3      OH2            32.6648615606      -36.1130438574       35.1475477821  TIP3      701             0.0000000000
     27018       901  TIP3      H1             31.7253422077      -35.8254669339       35.0382407140  TIP3      701             0.0000000000
     27019       901  TIP3      H2             32.9497388909      -36.1318177027       34.2202032046  TIP3      701             0.0000000000
     27020       902  TIP3      OH2            31.2787285298      -32.3414842684       29.1755708120  TIP3      702             0.0000000000
     27021       902  TIP3      H1             30.4504441913      -32.7809920243       28.9052901575  TIP3      702             0.0000000000
     27022       902  TIP3      H2             31.7576197400      -33.0351151427       29.6879921405  TIP3      702             0.0000000000
     27023       903  TIP3      OH2            18.9489581136      -33.8277586890       21.0695102015  TIP3      703             0.0000000000
     27024       903  TIP3      H1             19.0426176015      -32.8626365994       21.0847014676  TIP3      703             0.0000000000
     27025       903  TIP3      H2             18.1691314235      -33.9462472164       20.5125396258  TIP3      703             0.0000000000
     27026       904  TIP3      OH2            32.3332456822      -23.0723493869       30.8490910179  TIP3      704             0.0000000000
     27027       904  TIP3      H1             32.2492609769      -22.3948054820       30.1521769662  TIP3      704             0.0000000000
     27028       904  TIP3      H2             33.2981390280      -23.0274694652       31.0206702539  TIP3      704             0.0000000000
     27029       905  TIP3      OH2            19.8702929558      -38.8135459369       29.6085466889  TIP3      705             0.0000000000
     27030       905  TIP3      H1             19.6447041862      -38.8656502395       28.6515754542  TIP3      705             0.0000000000
     27031       905  TIP3      H2             19.5892605804      -39.6952346328       29.8375923384  TIP3      705             0.0000000000
     27032       906  TIP3      OH2            18.7584233211      -25.0620665362       25.7764828553  TIP3      706             0.0000000000
     27033       906  TIP3      H1             17.9295230173      -24.5626289496       25.7637394980  TIP3      706             0.0000000000
     27034       906  TIP3      H2             19.2784303008      -24.5778607419       25.1196051424  TIP3      706             0.0000000000
     27035       907  TIP3      OH2            17.9848280092      -22.4012074782       37.0860518830  TIP3      707             0.0000000000
     27036       907  TIP3      H1             18.5897477193      -22.6089300923       37.8247860494  TIP3      707             0.0000000000
     27037       907  TIP3      H2             17.5912185421      -23.2680782985       36.9216510419  TIP3      707             0.0000000000
     27038       908  TIP3      OH2            22.6669365502      -23.4814373848       38.6848432738  TIP3      708             0.0000000000
     27039       908  TIP3      H1             23.4302805418      -23.9679906212       39.0203606830  TIP3      708             0.0000000000
     27040       908  TIP3      H2             22.6470932769      -23.7490250290       37.7469116014  TIP3      708             0.0000000000
     27041       909  TIP3      OH2            29.1878537674      -25.0904990877       37.4202926261  TIP3      709             0.0000000000
     27042       909  TIP3      H1             28.8533817851      -25.9585179051       37.7350024553  TIP3      709             0.0000000000
     27043       909  TIP3      H2             29.9329871201      -24.9603235218       38.0414450753  TIP3      709             0.0000000000
     27044       910  TIP3      OH2            18.0717003523      -28.9211951463       38.1549203813  TIP3      710             0.0000000000
     27045       910  TIP3      H1             18.0772735353      -29.7527065517       37.6661847081  TIP3      710             0.0000000000
     27046       910  TIP3      H2             17.3498218057      -28.3902615542       37.7331674525  TIP3      710             0.0000000000
     27047       911  TIP3      OH2            24.6213268588      -28.6216479251       37.4724067012  TIP3      711             0.0000000000
     27048       911  TIP3      H1             24.2927388916      -28.3014088369       36.6121455971  TIP3      711             0.0000000000
     27049       911  TIP3      H2             24.6914502219      -29.6002223004       37.3575272533  TIP3      711             0.0000000000
     27050       912  TIP3      OH2            30.3133049144      -28.7631161805       34.8570536317  TIP3      712             0.0000000000
     27051       912  TIP3      H1             31.1017570314      -28.1811145037       34.7987154679  TIP3      712             0.0000000000
     27052       912  TIP3      H2             29.6142537599      -28.0943738927       34.8946719684  TIP3      712             0.0000000000
     27053       913  TIP3      OH2            18.8406698350      -31.4093548328       37.4412515846  TIP3      713             0.0000000000
     27054       913  TIP3      H1             19.2487030003      -32.2743806986       37.3791769000  TIP3      713             0.0000000000
     27055       913  TIP3      H2             18.5917095259      -31.3616160893       38.3808692881  TIP3      713             0.0000000000
     27056       914  TIP3      OH2            23.6284525817      -30.3591725832       22.6172462365  TIP3      714             0.0000000000
     27057       914  TIP3      H1             22.9133578636      -30.7608901260       23.1296032213  TIP3      714             0.0000000000
     27058       914  TIP3      H2             23.5961265369      -30.8765479931       21.8042515199  TIP3      714             0.0000000000
     27059       915  TIP3      OH2            22.7153889625      -32.4463439924       34.8135086675  TIP3      715             0.0000000000
     27060       915  TIP3      H1             22.1201925615      -31.7205712503       35.0753988045  TIP3      715             0.0000000000
     27061       915  TIP3      H2             23.1176908208      -32.0740033371       34.0096764589  TIP3      715             0.0000000000
     27062       916  TIP3      OH2            27.7947603705      -29.8733891888       38.1518550716  TIP3      716             0.0000000000
     27063       916  TIP3      H1             28.7511540543      -29.8846252023       38.0274808660  TIP3      716             0.0000000000
     27064       916  TIP3      H2             27.6246291966      -30.6417039782       38.7192298959  TIP3      716             0.0000000000
     27065       917  TIP3      OH2            23.1410707801      -35.0673493992       35.8737643155  TIP3      717             0.0000000000
     27066       917  TIP3      H1             23.2647272366      -35.7595297554       35.2037591184  TIP3      717             0.0000000000
     27067       917  TIP3      H2             23.0888143874      -34.2567240287       35.3256571565  TIP3      717             0.0000000000
     27068       918  TIP3      OH2            23.5240460085      -36.6140740561       33.4312748725  TIP3      718             0.0000000000
     27069       918  TIP3      H1             24.0511947730      -36.2155342647       32.6974792154  TIP3      718             0.0000000000
     27070       918  TIP3      H2             22.6425940204      -36.7646131070       33.0142538496  TIP3      718             0.0000000000
     27071       919  TIP3      OH2            25.0681929977      -31.1877181603       33.6662912831  TIP3      719             0.0000000000
     27072       919  TIP3      H1             25.8234508317      -31.3558612472       33.0967711411  TIP3      719             0.0000000000
     27073       919  TIP3      H2             24.7026482516      -30.3544460870       33.3305544305  TIP3      719             0.0000000000
     27074       920  TIP3      OH2            29.4617489864      -33.4339523389       38.6196250085  TIP3      720             0.0000000000
     27075       920  TIP3      H1             29.7107359949      -34.3643373081       38.5201259895  TIP3      720             0.0000000000
     27076       920  TIP3      H2             30.3269599495      -32.9914921808       38.6645273625  TIP3      720             0.0000000000
     27077       921  TIP3      OH2            30.7970130121      -30.6400815948       36.8027356290  TIP3      721             0.0000000000
     27078       921  TIP3      H1             30.5497298754      -29.9220458655       36.1806721345  TIP3      721             0.0000000000
     27079       921  TIP3      H2             31.7566701785      -30.6743288371       36.6101806330  TIP3      721             0.0000000000
     27080       922  TIP3      OH2            21.5857965719      -33.8043325384       37.7926071269  TIP3      722             0.0000000000
     27081       922  TIP3      H1             20.8188727459      -34.3843272481       37.6219109076  TIP3      722             0.0000000000
     27082       922  TIP3      H2             22.2471807159      -34.1593215510       37.1700451240  TIP3      722             0.0000000000
     27083       923  TIP3      OH2            24.3907725871      -39.0613886809       33.8673494553  TIP3      723             0.0000000000
     27084       923  TIP3      H1             24.1614277118      -38.1113918179       33.7678445848  TIP3      723             0.0000000000
     27085       923  TIP3      H2             23.6093692956      -39.4798884342       33.4862414361  TIP3      723             0.0000000000
     27086       924  TIP3      OH2            25.5920661335      -34.9201957745       37.4414532225  TIP3      724             0.0000000000
     27087       924  TIP3      H1             25.2797015567      -35.1692157595       38.3319741946  TIP3      724             0.0000000000
     27088       924  TIP3      H2             24.8052612736      -35.1265425919       36.9100341382  TIP3      724             0.0000000000
     27089       925  TIP3      OH2            28.3088170240      -35.7782530613       36.5509097002  TIP3      725             0.0000000000
     27090       925  TIP3      H1             27.3407745883      -35.7249443580       36.6404202336  TIP3      725             0.0000000000
     27091       925  TIP3      H2             28.5585306752      -36.4272074754       37.2335784939  TIP3      725             0.0000000000
     27092       926  TIP3      OH2            29.8767006855      -36.9451489465       38.4673286136  TIP3      726             0.0000000000
     27093       926  TIP3      H1             29.8801501837      -37.9364679359       38.4183956839  TIP3      726             0.0000000000
     27094       926  TIP3      H2             29.6207919244      -36.8015385840       39.3916016612  TIP3      726             0.0000000000
     27095       927  TIP3      OH2            19.6740211294      -35.9024845459       37.5582449607  TIP3      727             0.0000000000
     27096       927  TIP3      H1             19.8942814155      -36.6480496563       36.9683918480  TIP3      727             0.0000000000
     27097       927  TIP3      H2             19.5806023143      -36.3529559828       38.4183873694  TIP3      727             0.0000000000
     27098       928  TIP3      OH2            24.5112693349       39.8577165768       36.5328204012  TIP3      728             0.0000000000
     27099       928  TIP3      H1             25.2448036974       39.2332172209       36.5120754667  TIP3      728             0.0000000000
     27100       928  TIP3      H2             24.4397330118       40.1220910649       35.5926896105  TIP3      728             0.0000000000
     27101       929  TIP3      OH2            24.9641632405      -38.1525876272       38.5670106220  TIP3      729             0.0000000000
     27102       929  TIP3      H1             24.7260674835      -38.7515626191       37.8304005836  TIP3      729             0.0000000000
     27103       929  TIP3      H2             24.2978946163      -37.4509889597       38.5225856694  TIP3      729             0.0000000000
     27104       930  TIP3      OH2            24.3946954725      -21.3255417344       21.7930774728  TIP3      730             0.0000000000
     27105       930  TIP3      H1             25.3615976436      -21.2143851318       21.8552891864  TIP3      730             0.0000000000
     27106       930  TIP3      H2             24.1331389480      -20.7046214575       21.1026993997  TIP3      730             0.0000000000
     27107       931  TIP3      OH2            16.6838591395      -21.4084811970       26.2220320048  TIP3      731             0.0000000000
     27108       931  TIP3      H1             15.9204175056      -21.9383264304       25.9027807295  TIP3      731             0.0000000000
     27109       931  TIP3      H2             16.9943869689      -21.9924811204       26.9480497039  TIP3      731             0.0000000000
     27110       932  TIP3      OH2            17.4993656038      -23.2122854265       28.1134927558  TIP3      732             0.0000000000
     27111       932  TIP3      H1             17.1736045232      -24.1019610154       28.3115033519  TIP3      732             0.0000000000
     27112       932  TIP3      H2             17.7535717353      -22.9037379678       29.0028502845  TIP3      732             0.0000000000
     27113       933  TIP3      OH2            35.0609742502      -22.4470557666       31.0444591904  TIP3      733             0.0000000000
     27114       933  TIP3      H1             35.0707439736      -22.2812304774       32.0030176606  TIP3      733             0.0000000000
     27115       933  TIP3      H2             35.7655991753      -21.8602881727       30.7491704566  TIP3      733             0.0000000000
     27116       934  TIP3      OH2            34.6240466516      -22.8383207869       34.0034281670  TIP3      734             0.0000000000
     27117       934  TIP3      H1             34.1573173604      -23.6049367739       33.6125984583  TIP3      734             0.0000000000
     27118       934  TIP3      H2             35.1353711221      -23.2935192069       34.6952104658  TIP3      734             0.0000000000
     27119       935  TIP3      OH2            33.0739267514      -27.1216948088       38.6682381494  TIP3      735             0.0000000000
     27120       935  TIP3      H1             32.1640063015      -27.1433173060       39.0425666543  TIP3      735             0.0000000000
     27121       935  TIP3      H2             33.4349749745      -26.3132439421       39.0860051826  TIP3      735             0.0000000000
     27122       936  TIP3      OH2            34.3683614405      -28.8086922119       24.0943071059  TIP3      736             0.0000000000
     27123       936  TIP3      H1             35.2311825554      -28.3922767012       24.2816421533  TIP3      736             0.0000000000
     27124       936  TIP3      H2             34.3801932086      -29.5058821361       24.7894139644  TIP3      736             0.0000000000
     27125       937  TIP3      OH2            34.7636291391      -30.7353939312       25.9388836222  TIP3      737             0.0000000000
     27126       937  TIP3      H1             34.0113924859      -31.2145604148       26.3478696492  TIP3      737             0.0000000000
     27127       937  TIP3      H2             35.3495965420      -30.5762816941       26.7094051671  TIP3      737             0.0000000000
     27128       938  TIP3      OH2            34.5446318211      -28.0144578160       30.9754005244  TIP3      738             0.0000000000
     27129       938  TIP3      H1             35.3629650594      -28.3915766041       30.5985498748  TIP3      738             0.0000000000
     27130       938  TIP3      H2             34.6603284274      -27.0615383356       30.7869343052  TIP3      738             0.0000000000
     27131       939  TIP3      OH2            33.0646418239      -25.1110240690       33.2342165518  TIP3      739             0.0000000000
     27132       939  TIP3      H1             32.3769621185      -24.7686084052       33.8234047802  TIP3      739             0.0000000000
     27133       939  TIP3      H2             32.5207509627      -25.5103812933       32.5256399095  TIP3      739             0.0000000000
     27134       940  TIP3      OH2            35.0450363371      -30.9119189707       22.3425095497  TIP3      740             0.0000000000
     27135       940  TIP3      H1             34.4733423988      -30.5710756521       21.6535713996  TIP3      740             0.0000000000
     27136       940  TIP3      H2             35.0401296729      -30.2032099652       23.0131234314  TIP3      740             0.0000000000
     27137       941  TIP3      OH2            32.5672050926      -32.2426529145       26.5335567037  TIP3      741             0.0000000000
     27138       941  TIP3      H1             32.4214661105      -33.1993356076       26.5216523621  TIP3      741             0.0000000000
     27139       941  TIP3      H2             32.2484938526      -32.0199970345       27.4274082107  TIP3      741             0.0000000000
     27140       942  TIP3      OH2            17.5896543565      -30.1180387257       30.5965013679  TIP3      742             0.0000000000
     27141       942  TIP3      H1             17.8126409215      -30.2399025982       29.6373719701  TIP3      742             0.0000000000
     27142       942  TIP3      H2             18.4866652447      -30.3366917754       30.9620909467  TIP3      742             0.0000000000
     27143       943  TIP3      OH2            33.4122678876      -30.2726605401       36.2644415371  TIP3      743             0.0000000000
     27144       943  TIP3      H1             34.0357627553      -31.0234553837       36.3701271696  TIP3      743             0.0000000000
     27145       943  TIP3      H2             34.0171491974      -29.5011035270       36.2334994876  TIP3      743             0.0000000000
     27146       944  TIP3      OH2            34.9698009156      -32.4020285338       36.8909999081  TIP3      744             0.0000000000
     27147       944  TIP3      H1             34.0812551855      -32.7826183931       36.7294215532  TIP3      744             0.0000000000
     27148       944  TIP3      H2             35.5323235014      -33.1978961725       36.8158165369  TIP3      744             0.0000000000
     27149       945  TIP3      OH2            32.7092552631      -36.2634644803       20.0193899873  TIP3      745             0.0000000000
     27150       945  TIP3      H1             33.2760369095      -36.6566491807       20.7003739556  TIP3      745             0.0000000000
     27151       945  TIP3      H2             31.8233195049      -36.6025316479       20.2055502761  TIP3      745             0.0000000000
     27152       946  TIP3      OH2            32.2421953098      -34.6466935188       25.0341512752  TIP3      746             0.0000000000
     27153       946  TIP3      H1             32.5361925976      -35.5796614999       25.1274528880  TIP3      746             0.0000000000
     27154       946  TIP3      H2             33.0256934205      -34.2499208217       24.6212571781  TIP3      746             0.0000000000
     27155       947  TIP3      OH2            32.8763651187      -34.1034350013       30.4469465415  TIP3      747             0.0000000000
     27156       947  TIP3      H1             33.8393606862      -33.8955492836       30.4340899967  TIP3      747             0.0000000000
     27157       947  TIP3      H2             32.6916218478      -33.9992207186       31.3919171941  TIP3      747             0.0000000000
     27158       948  TIP3      OH2            32.9438375524      -33.3874220987       33.2286612823  TIP3      748             0.0000000000
     27159       948  TIP3      H1             32.0607795464      -33.0987157844       33.5440706293  TIP3      748             0.0000000000
     27160       948  TIP3      H2             33.3780042378      -32.5268480449       33.0110867734  TIP3      748             0.0000000000
     27161       949  TIP3      OH2            17.2145868423      -34.8636658482       36.7595782340  TIP3      749             0.0000000000
     27162       949  TIP3      H1             18.1473136951      -35.0982724079       36.9577410267  TIP3      749             0.0000000000
     27163       949  TIP3      H2             16.7477680251      -35.6828900222       37.0215993202  TIP3      749             0.0000000000
     27164       950  TIP3      OH2            35.4383728713      -39.2479483747       38.6504491519  TIP3      750             0.0000000000
     27165       950  TIP3      H1             35.4532212122      -39.9947319851       38.0138329199  TIP3      750             0.0000000000
     27166       950  TIP3      H2             35.2894709681      -38.4944060865       38.0433282418  TIP3      750             0.0000000000
     27167       951  TIP3      OH2            32.8483968303      -37.3313037620       25.0594903375  TIP3      751             0.0000000000
     27168       951  TIP3      H1             33.1174230034      -37.7973425400       25.8836768787  TIP3      751             0.0000000000
     27169       951  TIP3      H2             32.2979945745      -38.0114168796       24.6154283992  TIP3      751             0.0000000000
     27170       952  TIP3      OH2            18.3942132107      -36.5527679303       29.5970233044  TIP3      752             0.0000000000
     27171       952  TIP3      H1             18.8498113267      -37.3626648008       29.8979106709  TIP3      752             0.0000000000
     27172       952  TIP3      H2             18.9540024341      -35.8621187553       29.9752735350  TIP3      752             0.0000000000
     27173       953  TIP3      OH2            16.6487402802      -33.5178415658       30.6243704620  TIP3      753             0.0000000000
     27174       953  TIP3      H1             17.2261644279      -33.8283831079       29.8933230547  TIP3      753             0.0000000000
     27175       953  TIP3      H2             17.1968331138      -32.7796781256       30.9135381527  TIP3      753             0.0000000000
     27176       954  TIP3      OH2            34.7276255095      -37.2967518501       36.9254315644  TIP3      754             0.0000000000
     27177       954  TIP3      H1             33.8084057220      -36.9638629174       36.8920110493  TIP3      754             0.0000000000
     27178       954  TIP3      H2             34.7312963544      -37.7975042600       36.1008294685  TIP3      754             0.0000000000
     27179       955  TIP3      OH2            34.7688494152      -37.3136452515       21.5708055190  TIP3      755             0.0000000000
     27180       955  TIP3      H1             35.1709759005      -38.0697544704       21.1143500933  TIP3      755             0.0000000000
     27181       955  TIP3      H2             35.4649140795      -36.6426349586       21.6212143803  TIP3      755             0.0000000000
     27182       956  TIP3      OH2            17.0431137947      -37.3210574163       24.7600004184  TIP3      756             0.0000000000
     27183       956  TIP3      H1             16.1026022253      -37.1255552920       24.5829336980  TIP3      756             0.0000000000
     27184       956  TIP3      H2             17.4438681203      -36.8040199471       24.0351310579  TIP3      756             0.0000000000
     27185       957  TIP3      OH2            31.7707388375      -22.3571098675       26.6785309459  TIP3      757             0.0000000000
     27186       957  TIP3      H1             32.4528364082      -22.6569005296       26.0508517934  TIP3      757             0.0000000000
     27187       957  TIP3      H2             32.2897498129      -21.8507018778       27.3190940161  TIP3      757             0.0000000000
     27188       958  TIP3      OH2            17.0010291850      -38.6488270984       32.9120892934  TIP3      758             0.0000000000
     27189       958  TIP3      H1             16.4294150120      -38.7231892447       33.7072808362  TIP3      758             0.0000000000
     27190       958  TIP3      H2             16.5654985899      -37.9248757166       32.4296458392  TIP3      758             0.0000000000
     27191       959  TIP3      OH2            19.3499643661      -25.3182721363       37.1450358041  TIP3      759             0.0000000000
     27192       959  TIP3      H1             18.4594596494      -25.2670766164       36.7557826428  TIP3      759             0.0000000000
     27193       959  TIP3      H2             19.0106789444      -25.5538618125       38.0299826300  TIP3      759             0.0000000000
     27194       960  TIP3      OH2            22.1284676712      -24.4390157347       33.4574601175  TIP3      760             0.0000000000
     27195       960  TIP3      H1             21.8039215616      -23.5689386599       33.1883209861  TIP3      760             0.0000000000
     27196       960  TIP3      H2             23.0568774817      -24.3566389729       33.1561990701  TIP3      760             0.0000000000
     27197       961  TIP3      OH2            26.4491322588      -23.0203837565       36.3561897264  TIP3      761             0.0000000000
     27198       961  TIP3      H1             26.5845195505      -23.3704018698       37.2681163746  TIP3      761             0.0000000000
     27199       961  TIP3      H2             27.3517740244      -22.7116522111       36.1182910893  TIP3      761             0.0000000000
     27200       962  TIP3      OH2            28.7331333757      -21.7457694078       35.6772262971  TIP3      762             0.0000000000
     27201       962  TIP3      H1             29.4626357048      -22.3307127174       35.4397868641  TIP3      762             0.0000000000
     27202       962  TIP3      H2             29.1103597972      -21.3099807367       36.4711651228  TIP3      762             0.0000000000
     27203       963  TIP3      OH2            33.9450690567      -38.9418670184       34.6007311456  TIP3      763             0.0000000000
     27204       963  TIP3      H1             33.0070561781      -38.7194040943       34.4230152836  TIP3      763             0.0000000000
     27205       963  TIP3      H2             34.0480871630      -39.8621451176       34.3580826506  TIP3      763             0.0000000000
     27206       964  TIP3      OH2            19.5444597580      -21.2147493824       33.4539249522  TIP3      764             0.0000000000
     27207       964  TIP3      H1             18.8211228283      -20.7053059785       33.0594292911  TIP3      764             0.0000000000
     27208       964  TIP3      H2             19.2429986580      -21.3934731476       34.3547664966  TIP3      764             0.0000000000
     27209       965  TIP3      OH2            22.0207795586      -21.6275964777       32.5230528412  TIP3      765             0.0000000000
     27210       965  TIP3      H1             21.1307735502      -21.4696131620       32.9228984313  TIP3      765             0.0000000000
     27211       965  TIP3      H2             21.9705579358      -21.0376341432       31.7500892796  TIP3      765             0.0000000000
     27212       966  TIP3      OH2            26.7322764172      -21.7138775744       31.6921392920  TIP3      766             0.0000000000
     27213       966  TIP3      H1             26.2672123559      -21.1552176916       31.0492186774  TIP3      766             0.0000000000
     27214       966  TIP3      H2             26.8602908783      -21.0828514893       32.4332685944  TIP3      766             0.0000000000
     27215       967  TIP3      OH2            29.0155497044      -22.9083272801       32.7308323936  TIP3      767             0.0000000000
     27216       967  TIP3      H1             28.1645732722      -22.6290920976       32.3554576900  TIP3      767             0.0000000000
     27217       967  TIP3      H2             29.5043471157      -22.0728269915       32.6353615660  TIP3      767             0.0000000000
     27218       968  TIP3      OH2            31.6041344527      -21.3321453055       32.9493415460  TIP3      768             0.0000000000
     27219       968  TIP3      H1             31.5490364438      -20.3740136916       32.7182505029  TIP3      768             0.0000000000
     27220       968  TIP3      H2             31.7991709559      -21.7077543513       32.0694803586  TIP3      768             0.0000000000
     27221       969  TIP3      OH2            19.0154898116      -22.5597900177       30.3865785491  TIP3      769             0.0000000000
     27222       969  TIP3      H1             18.9400174576      -23.0053798037       31.2555247996  TIP3      769             0.0000000000
     27223       969  TIP3      H2             19.8345462977      -22.9354095815       30.0066061082  TIP3      769             0.0000000000
     27224       970  TIP3      OH2            21.0908450120      -23.8491048484       29.0409856387  TIP3      770             0.0000000000
     27225       970  TIP3      H1             20.9294720774      -24.7778968495       29.2839614556  TIP3      770             0.0000000000
     27226       970  TIP3      H2             21.9434720139      -23.6880444470       29.5000976398  TIP3      770             0.0000000000
     27227       971  TIP3      OH2            23.6959687442      -23.3564876255       29.9292091945  TIP3      771             0.0000000000
     27228       971  TIP3      H1             23.8544138777      -24.2825096102       29.6643185619  TIP3      771             0.0000000000
     27229       971  TIP3      H2             23.7397105080      -23.4157692274       30.8948924722  TIP3      771             0.0000000000
     27230       972  TIP3      OH2            27.0666303110      -37.6612249931       28.9864881413  TIP3      772             0.0000000000
     27231       972  TIP3      H1             26.5218869937      -38.3458196281       29.4139841793  TIP3      772             0.0000000000
     27232       972  TIP3      H2             27.7492356891      -38.2077825501       28.5649904285  TIP3      772             0.0000000000
     27233       973  TIP3      OH2            32.3356300447      -38.8882007549       29.4247214632  TIP3      773             0.0000000000
     27234       973  TIP3      H1             32.9500961049      -38.9111355743       28.6396975689  TIP3      773             0.0000000000
     27235       973  TIP3      H2             31.4874216998      -39.1852021377       29.0361631080  TIP3      773             0.0000000000
     27236       974  TIP3      OH2            33.9393964784      -38.4175587699       27.3632451223  TIP3      774             0.0000000000
     27237       974  TIP3      H1             34.6247303144      -39.0395970721       27.0395872277  TIP3      774             0.0000000000
     27238       974  TIP3      H2             34.4525297142      -37.5863519868       27.4972757734  TIP3      774             0.0000000000
     27239       975  TIP3      OH2            19.5066701989      -39.1205719130       26.9139454966  TIP3      775             0.0000000000
     27240       975  TIP3      H1             18.7123422267      -39.3061953731       26.3806758291  TIP3      775             0.0000000000
     27241       975  TIP3      H2             19.9576273971      -39.9803158460       26.8543234347  TIP3      775             0.0000000000
     27242       976  TIP3      OH2            23.9150680525      -38.7822957452       26.6079461420  TIP3      776             0.0000000000
     27243       976  TIP3      H1             24.8890877677      -38.8301634394       26.5376818828  TIP3      776             0.0000000000
     27244       976  TIP3      H2             23.8726523636      -39.3028508885       27.4224159524  TIP3      776             0.0000000000
     27245       977  TIP3      OH2            29.5197184765      -39.0043402769       28.5150558414  TIP3      777             0.0000000000
     27246       977  TIP3      H1             29.6114329962      -38.9272354747       27.5510643070  TIP3      777             0.0000000000
     27247       977  TIP3      H2             29.3290659021      -39.9544552942       28.5683709109  TIP3      777             0.0000000000
     27248       978  TIP3      OH2            30.9174602495      -39.0586200236       24.0187392074  TIP3      778             0.0000000000
     27249       978  TIP3      H1             30.1700970794      -38.4850236433       23.7852193277  TIP3      778             0.0000000000
     27250       978  TIP3      H2             30.5750776724      -39.9515721540       24.1276406459  TIP3      778             0.0000000000
     27251       979  TIP3      OH2            18.0887556758      -23.3577348209       23.7123294562  TIP3      779             0.0000000000
     27252       979  TIP3      H1             17.6097679133      -23.3870859989       22.8535045444  TIP3      779             0.0000000000
     27253       979  TIP3      H2             18.3452209073      -22.4294133890       23.7497247018  TIP3      779             0.0000000000
     27254       980  TIP3      OH2            24.9174030702      -37.1319121367       23.7148478408  TIP3      780             0.0000000000
     27255       980  TIP3      H1             25.4903385835      -37.7430511649       24.2074947453  TIP3      780             0.0000000000
     27256       980  TIP3      H2             25.2939459758      -36.2694948201       23.9938755064  TIP3      780             0.0000000000
     27257       981  TIP3      OH2            27.0586066339      -22.0839887713       21.9428797560  TIP3      781             0.0000000000
     27258       981  TIP3      H1             27.9862125580      -21.8701518963       21.7934118626  TIP3      781             0.0000000000
     27259       981  TIP3      H2             26.8937517186      -22.6192598872       21.1570765141  TIP3      781             0.0000000000
     27260       982  TIP3      OH2            33.8027408656      -22.5570949954       24.6999328420  TIP3      782             0.0000000000
     27261       982  TIP3      H1             33.5788534038      -23.3518516822       24.1501852736  TIP3      782             0.0000000000
     27262       982  TIP3      H2             33.6888827813      -21.8433371046       24.0497444177  TIP3      782             0.0000000000
     27263       983  TIP3      OH2            19.3574836296      -38.3279589889       36.3441429109  TIP3      783             0.0000000000
     27264       983  TIP3      H1             18.9961653951      -39.1683010117       36.7201504276  TIP3      783             0.0000000000
     27265       983  TIP3      H2             20.2670826558      -38.5023656618       36.6535558389  TIP3      783             0.0000000000
     27266       984  TIP3      OH2            21.5752354866      -39.0510136754       38.0904973746  TIP3      784             0.0000000000
     27267       984  TIP3      H1             22.3317387463      -39.4266929252       37.6018635113  TIP3      784             0.0000000000
     27268       984  TIP3      H2             21.0209025608      -39.8457432365       38.2559843564  TIP3      784             0.0000000000
     27269       985  TIP3      OH2            29.9813695342       40.3666102360       38.1524082481  TIP3      785             0.0000000000
     27270       985  TIP3      H1             29.8614937332       39.6535498154       38.8050430450  TIP3      785             0.0000000000
     27271       985  TIP3      H2             30.7400703747       39.9833721461       37.6866862998  TIP3      785             0.0000000000
     27272       986  TIP3      OH2            33.0188579314      -23.8208537127       36.7865182475  TIP3      786             0.0000000000
     27273       986  TIP3      H1             32.2130625979      -23.9591661883       36.2427195142  TIP3      786             0.0000000000
     27274       986  TIP3      H2             32.8953971485      -22.8761305710       37.0063019129  TIP3      786             0.0000000000
     27275       987  TIP3      OH2            38.5646140785      -30.9461975634       31.9542739622  TIP3      787             0.0000000000
     27276       987  TIP3      H1             38.7526759658      -31.7250701071       32.5276576943  TIP3      787             0.0000000000
     27277       987  TIP3      H2             39.4307791031      -30.5092468763       31.9530805884  TIP3      787             0.0000000000
     27278       988  TIP3      OH2           -40.3925486465      -27.1126200873       30.6959600881  TIP3      788             0.0000000000
     27279       988  TIP3      H1            -40.6074473711      -27.6535552055       29.9093988749  TIP3      788             0.0000000000
     27280       988  TIP3      H2            -39.5361001119      -26.7831201020       30.4102972424  TIP3      788             0.0000000000
     27281       989  TIP3      OH2            36.1991513201      -33.0660558680       25.8138816942  TIP3      789             0.0000000000
     27282       989  TIP3      H1             35.8245324353      -32.1593543282       25.7390573763  TIP3      789             0.0000000000
     27283       989  TIP3      H2             35.6351628408      -33.5534123215       25.2068969852  TIP3      789             0.0000000000
     27284       990  TIP3      OH2            36.9433325802      -30.7836227151       27.9414166712  TIP3      790             0.0000000000
     27285       990  TIP3      H1             37.2193602787      -31.5994978504       28.4055493496  TIP3      790             0.0000000000
     27286       990  TIP3      H2             37.6644155354      -30.6699159265       27.3024223867  TIP3      790             0.0000000000
     27287       991  TIP3      OH2            37.5894474087      -33.3342858438       28.9839084972  TIP3      791             0.0000000000
     27288       991  TIP3      H1             38.2855729416      -33.8213433407       29.4640767112  TIP3      791             0.0000000000
     27289       991  TIP3      H2             37.7366817399      -33.6585020998       28.0830313085  TIP3      791             0.0000000000
     27290       992  TIP3      OH2            39.3704319243      -35.4548799081       30.3050159941  TIP3      792             0.0000000000
     27291       992  TIP3      H1             39.7630985381      -34.6764425206       30.7667869066  TIP3      792             0.0000000000
     27292       992  TIP3      H2             39.9532352432      -35.5800248686       29.5382113100  TIP3      792             0.0000000000
     27293       993  TIP3      OH2            36.8982185482      -27.5840259758       24.1430870988  TIP3      793             0.0000000000
     27294       993  TIP3      H1             36.7079127560      -27.2227760031       23.2782345437  TIP3      793             0.0000000000
     27295       993  TIP3      H2             37.0269581940      -26.7496741772       24.6448806449  TIP3      793             0.0000000000
     27296       994  TIP3      OH2            38.9684229654      -30.5320979919       34.7585115659  TIP3      794             0.0000000000
     27297       994  TIP3      H1             39.2138430756      -29.7908154113       35.3467742839  TIP3      794             0.0000000000
     27298       994  TIP3      H2             38.1322733133      -30.2545357365       34.3608730091  TIP3      794             0.0000000000
     27299       995  TIP3      OH2            36.1755535737      -28.3773553757       33.6473239872  TIP3      795             0.0000000000
     27300       995  TIP3      H1             35.7956635236      -28.4683430483       32.7595522543  TIP3      795             0.0000000000
     27301       995  TIP3      H2             36.3228928059      -29.3249651438       33.8437565841  TIP3      795             0.0000000000
     27302       996  TIP3      OH2            36.0351958351      -25.6484437929       30.4098352935  TIP3      796             0.0000000000
     27303       996  TIP3      H1             36.9914629650      -25.7847737229       30.4175566382  TIP3      796             0.0000000000
     27304       996  TIP3      H2             35.9233958670      -24.8288222570       30.9126019875  TIP3      796             0.0000000000
     27305       997  TIP3      OH2            39.0362900271      -23.2434587578       26.4457951925  TIP3      797             0.0000000000
     27306       997  TIP3      H1             39.3121988616      -23.2542941351       27.3840707132  TIP3      797             0.0000000000
     27307       997  TIP3      H2             38.0847890045      -23.3214221252       26.4436783645  TIP3      797             0.0000000000
     27308       998  TIP3      OH2            38.4856925019      -27.0419243069       34.6066177833  TIP3      798             0.0000000000
     27309       998  TIP3      H1             38.7730988381      -27.4605631497       35.4415569170  TIP3      798             0.0000000000
     27310       998  TIP3      H2             37.6642175390      -27.4903485926       34.3459562690  TIP3      798             0.0000000000
     27311       999  TIP3      OH2            38.9267219347      -33.3379571554       33.5031765765  TIP3      799             0.0000000000
     27312       999  TIP3      H1             38.9644129604      -33.0041126299       34.4050681231  TIP3      799             0.0000000000
     27313       999  TIP3      H2             38.5169861147      -34.2068034800       33.6187176120  TIP3      799             0.0000000000
     27314      1000  TIP3      OH2            35.5766324830      -36.2749128193       27.4272736990  TIP3      800             0.0000000000
     27315      1000  TIP3      H1             36.2708606414      -36.2649934656       28.1263145845  TIP3      800             0.0000000000
     27316      1000  TIP3      H2             36.0602557765      -36.6375193836       26.6699887143  TIP3      800             0.0000000000
     27317      1001  TIP3      OH2            36.8132448903      -35.5347095504       22.7854381978  TIP3      801             0.0000000000
     27318      1001  TIP3      H1             37.3502193950      -34.9118250856       22.2551092148  TIP3      801             0.0000000000
     27319      1001  TIP3      H2             36.1624205291      -34.9015958943       23.1444100775  TIP3      801             0.0000000000
     27320      1002  TIP3      OH2            38.5438371999      -34.3057428991       26.4214978360  TIP3      802             0.0000000000
     27321      1002  TIP3      H1             37.6382765676      -34.2793473722       26.0923511833  TIP3      802             0.0000000000
     27322      1002  TIP3      H2             38.8829523551      -35.2127363344       26.2775719998  TIP3      802             0.0000000000
     27323      1003  TIP3      OH2            39.0076558939      -28.5297597887       36.7535728377  TIP3      803             0.0000000000
     27324      1003  TIP3      H1             39.6246709211      -28.3719360689       37.4496994292  TIP3      803             0.0000000000
     27325      1003  TIP3      H2             38.2006432359      -28.4735925473       37.3094445499  TIP3      803             0.0000000000
     27326      1004  TIP3      OH2            39.2063833093      -29.2687813128       29.1640625306  TIP3      804             0.0000000000
     27327      1004  TIP3      H1             40.0654028179      -29.2600668473       28.7114827196  TIP3      804             0.0000000000
     27328      1004  TIP3      H2             39.3705880353      -29.9599545264       29.8494027453  TIP3      804             0.0000000000
     27329      1005  TIP3      OH2            36.3603240333      -30.7995893542       34.7661607396  TIP3      805             0.0000000000
     27330      1005  TIP3      H1             36.6603580284      -31.2928253239       35.5554309763  TIP3      805             0.0000000000
     27331      1005  TIP3      H2             35.8305915951      -31.4615247965       34.2837327467  TIP3      805             0.0000000000
     27332      1006  TIP3      OH2            38.0647135148      -36.1553127339       34.2654819337  TIP3      806             0.0000000000
     27333      1006  TIP3      H1             37.1638965079      -35.7988522435       34.2133326767  TIP3      806             0.0000000000
     27334      1006  TIP3      H2             37.9455772361      -37.0002444674       34.7300099693  TIP3      806             0.0000000000
     27335      1007  TIP3      OH2            37.7135807236      -24.3360159380       32.7006859694  TIP3      807             0.0000000000
     27336      1007  TIP3      H1             37.9454326738      -25.2777369790       32.7242816041  TIP3      807             0.0000000000
     27337      1007  TIP3      H2             37.9802095578      -24.0444561407       33.5864714816  TIP3      807             0.0000000000
     27338      1008  TIP3      OH2            39.0409971592      -29.0675329579       22.8759182478  TIP3      808             0.0000000000
     27339      1008  TIP3      H1             38.3269662219      -28.7197648380       23.4345740437  TIP3      808             0.0000000000
     27340      1008  TIP3      H2             39.4365055148      -28.2535245560       22.5666931609  TIP3      808             0.0000000000
     27341      1009  TIP3      OH2            39.2911504114      -26.3812310677       22.0124273290  TIP3      809             0.0000000000
     27342      1009  TIP3      H1             40.0006341655      -25.7398132349       22.0730913213  TIP3      809             0.0000000000
     27343      1009  TIP3      H2             39.6977781453      -26.7705337687       21.2106366152  TIP3      809             0.0000000000
     27344      1010  TIP3      OH2            38.7246422572      -38.8454569874       29.6632365544  TIP3      810             0.0000000000
     27345      1010  TIP3      H1             38.5504633449      -38.8417350729       28.6929710838  TIP3      810             0.0000000000
     27346      1010  TIP3      H2             38.5054526863      -39.7462177767       29.8445754221  TIP3      810             0.0000000000
     27347      1011  TIP3      OH2            37.4875244068      -25.1524852651       25.7059326626  TIP3      811             0.0000000000
     27348      1011  TIP3      H1             36.7302122417      -24.5553922146       25.7293039945  TIP3      811             0.0000000000
     27349      1011  TIP3      H2             38.1203901031      -24.6346424397       25.1598460770  TIP3      811             0.0000000000
     27350      1012  TIP3      OH2            36.8524616456      -22.3881062257       37.0908796213  TIP3      812             0.0000000000
     27351      1012  TIP3      H1             37.4647587782      -22.5950821399       37.8272924995  TIP3      812             0.0000000000
     27352      1012  TIP3      H2             36.4327029333      -23.2502982842       36.9050840582  TIP3      812             0.0000000000
     27353      1013  TIP3      OH2            36.7755210345      -28.6176884605       38.0761635908  TIP3      813             0.0000000000
     27354      1013  TIP3      H1             36.9548745500      -29.5224856749       37.7619315536  TIP3      813             0.0000000000
     27355      1013  TIP3      H2             36.0265087524      -28.3517326440       37.5115316799  TIP3      813             0.0000000000
     27356      1014  TIP3      OH2            37.7011904625      -31.3602805595       37.4944328141  TIP3      814             0.0000000000
     27357      1014  TIP3      H1             38.0176762673      -32.2557026942       37.3360789620  TIP3      814             0.0000000000
     27358      1014  TIP3      H2             37.4261245089      -31.3928197750       38.4235266876  TIP3      814             0.0000000000
     27359      1015  TIP3      OH2            38.4296923920      -35.9769518080       37.5901358489  TIP3      815             0.0000000000
     27360      1015  TIP3      H1             38.6719606524      -36.7054956489       36.9767771521  TIP3      815             0.0000000000
     27361      1015  TIP3      H2             38.4447370320      -36.4073426009       38.4607098212  TIP3      815             0.0000000000
     27362      1016  TIP3      OH2            35.5433891304      -21.3530310892       26.2465750112  TIP3      816             0.0000000000
     27363      1016  TIP3      H1             34.8303588632      -21.8485075478       25.7738186496  TIP3      816             0.0000000000
     27364      1016  TIP3      H2             35.8196791042      -22.0134647385       26.9164299664  TIP3      816             0.0000000000
     27365      1017  TIP3      OH2            36.3808176932      -23.2385320427       28.1051834437  TIP3      817             0.0000000000
     27366      1017  TIP3      H1             36.0343499340      -24.1192585572       28.3098227739  TIP3      817             0.0000000000
     27367      1017  TIP3      H2             36.6076984630      -22.9005006967       28.9927106123  TIP3      817             0.0000000000
     27368      1018  TIP3      OH2            36.4481138728      -30.1688959694       30.6000290591  TIP3      818             0.0000000000
     27369      1018  TIP3      H1             36.6369836664      -30.2523267545       29.6410675222  TIP3      818             0.0000000000
     27370      1018  TIP3      H2             37.3445959413      -30.3557838331       30.9700188854  TIP3      818             0.0000000000
     27371      1019  TIP3      OH2            36.0302528583      -34.8486540628       36.7548988829  TIP3      819             0.0000000000
     27372      1019  TIP3      H1             36.9564457824      -35.0899837917       36.9617338761  TIP3      819             0.0000000000
     27373      1019  TIP3      H2             35.5812962539      -35.6744497535       37.0096396683  TIP3      819             0.0000000000
     27374      1020  TIP3      OH2            37.1565976326      -36.5817731191       29.6267304418  TIP3      820             0.0000000000
     27375      1020  TIP3      H1             37.7154302239      -37.3575181549       29.8311546078  TIP3      820             0.0000000000
     27376      1020  TIP3      H2             37.7887464336      -35.9056840444       29.9407300333  TIP3      820             0.0000000000
     27377      1021  TIP3      OH2            35.5350687778      -33.5610323560       30.6269897467  TIP3      821             0.0000000000
     27378      1021  TIP3      H1             36.1416365644      -33.8026058205       29.8916398309  TIP3      821             0.0000000000
     27379      1021  TIP3      H2             35.9882681129      -32.7582345955       30.9199790187  TIP3      821             0.0000000000
     27380      1022  TIP3      OH2            35.8924892227      -37.3337780525       24.7264523936  TIP3      822             0.0000000000
     27381      1022  TIP3      H1             34.9537905981      -37.1260866416       24.5919266253  TIP3      822             0.0000000000
     27382      1022  TIP3      H2             36.3156284539      -36.8241840008       24.0157226368  TIP3      822             0.0000000000
     27383      1023  TIP3      OH2            35.8703617342      -38.6756138078       32.9255430950  TIP3      823             0.0000000000
     27384      1023  TIP3      H1             35.2671435976      -38.7208893019       33.7009498009  TIP3      823             0.0000000000
     27385      1023  TIP3      H2             35.4401094941      -37.9475738520       32.4238026049  TIP3      823             0.0000000000
     27386      1024  TIP3      OH2            38.0949249274      -25.4827082102       37.2249259986  TIP3      824             0.0000000000
     27387      1024  TIP3      H1             37.2931247442      -25.2714393687       36.7117288574  TIP3      824             0.0000000000
     27388      1024  TIP3      H2             37.7401691967      -25.5063276915       38.1127638797  TIP3      824             0.0000000000
     27389      1025  TIP3      OH2            38.3074026286      -21.2953711823       33.4759510343  TIP3      825             0.0000000000
     27390      1025  TIP3      H1             37.6008911333      -20.7622961936       33.0728383079  TIP3      825             0.0000000000
     27391      1025  TIP3      H2             38.0105444827      -21.4448276577       34.3753890903  TIP3      825             0.0000000000
     27392      1026  TIP3      OH2            37.8133792268      -22.5898056143       30.3969873850  TIP3      826             0.0000000000
     27393      1026  TIP3      H1             37.7725779848      -22.9978847723       31.2930080428  TIP3      826             0.0000000000
     27394      1026  TIP3      H2             38.6755309172      -22.8722209977       30.0659983946  TIP3      826             0.0000000000
     27395      1027  TIP3      OH2            38.1414381098      -38.9847853110       26.9117261882  TIP3      827             0.0000000000
     27396      1027  TIP3      H1             37.4963009641      -39.3382844924       26.3006033390  TIP3      827             0.0000000000
     27397      1027  TIP3      H2             38.8015115236      -39.7278027529       26.9546122582  TIP3      827             0.0000000000
     27398      1028  TIP3      OH2            37.1840857978      -39.2993359870       22.6886864122  TIP3      828             0.0000000000
     27399      1028  TIP3      H1             37.6315523462      -38.7004234145       22.0620981297  TIP3      828             0.0000000000
     27400      1028  TIP3      H2             36.5480444384      -38.7218974115       23.1303718535  TIP3      828             0.0000000000
     27401      1029  TIP3      OH2            37.0698220192      -23.3655948639       23.6109187591  TIP3      829             0.0000000000
     27402      1029  TIP3      H1             36.3803684381      -23.3932037538       22.9133484871  TIP3      829             0.0000000000
     27403      1029  TIP3      H2             37.0509698112      -22.4342775421       23.8252855064  TIP3      829             0.0000000000
     27404      1030  TIP3      OH2            38.9914357654      -37.4922558740       21.2992647443  TIP3      830             0.0000000000
     27405      1030  TIP3      H1             39.5024564613      -37.9575861702       20.6210184449  TIP3      830             0.0000000000
     27406      1030  TIP3      H2             39.6805408090      -37.0069521355       21.7644770922  TIP3      830             0.0000000000
     27407      1031  TIP3      OH2            38.2530589662      -38.3599674992       36.3260254522  TIP3      831             0.0000000000
     27408      1031  TIP3      H1             37.9125028388      -39.1760607032       36.7526440500  TIP3      831             0.0000000000
     27409      1031  TIP3      H2             39.1694475710      -38.5436655255       36.5904331185  TIP3      831             0.0000000000
     27410      1032  TIP3      OH2            38.7782303173      -22.4009623904       20.7029152071  TIP3      832             0.0000000000
     27411      1032  TIP3      H1             38.4920654364      -22.1571337669       21.5823753537  TIP3      832             0.0000000000
     27412      1032  TIP3      H2             39.4448572611      -23.0833086634       20.8217613818  TIP3      832             0.0000000000
     27413      1033  TIP3      OH2           -27.9684107929      -11.0961973815       26.7801024493  TIP3      833             0.0000000000
     27414      1033  TIP3      H1            -27.9676205470      -10.1178645117       26.7257257566  TIP3      833             0.0000000000
     27415      1033  TIP3      H2            -28.6856329983      -11.3078879864       26.1622521045  TIP3      833             0.0000000000
     27416      1034  TIP3      OH2           -29.1011854565      -11.8353111261       30.2703064613  TIP3      834             0.0000000000
     27417      1034  TIP3      H1            -29.1240092211      -12.4816468112       30.9905467405  TIP3      834             0.0000000000
     27418      1034  TIP3      H2            -29.4591838397      -12.3423606599       29.5210876986  TIP3      834             0.0000000000
     27419      1035  TIP3      OH2           -36.6624208959      -12.2047492560       31.7876810082  TIP3      835             0.0000000000
     27420      1035  TIP3      H1            -36.6711268539      -12.8460102483       32.5281962996  TIP3      835             0.0000000000
     27421      1035  TIP3      H2            -35.9976740147      -11.5720122267       32.0881883303  TIP3      835             0.0000000000
     27422      1036  TIP3      OH2           -25.4239513106       -8.8806772818       28.5518931766  TIP3      836             0.0000000000
     27423      1036  TIP3      H1            -25.8353553107       -9.6002488608       29.0416680958  TIP3      836             0.0000000000
     27424      1036  TIP3      H2            -25.3963177049       -8.1771785885       29.2261253690  TIP3      836             0.0000000000
     27425      1037  TIP3      OH2           -35.8383735083       -7.7191005793       30.3303042817  TIP3      837             0.0000000000
     27426      1037  TIP3      H1            -36.1300387257       -8.5863425635       29.9962632285  TIP3      837             0.0000000000
     27427      1037  TIP3      H2            -34.8802920730       -7.8864671252       30.3740440970  TIP3      837             0.0000000000
     27428      1038  TIP3      OH2           -39.0820727134      -14.0790696238       25.6447113749  TIP3      838             0.0000000000
     27429      1038  TIP3      H1            -39.5858620610      -13.2721871222       25.8055171117  TIP3      838             0.0000000000
     27430      1038  TIP3      H2            -39.7957833617      -14.6953195465       25.4062750057  TIP3      838             0.0000000000
     27431      1039  TIP3      OH2           -38.4157559543      -11.8807715230       28.0211336575  TIP3      839             0.0000000000
     27432      1039  TIP3      H1            -38.2325411652      -12.7536925836       28.4168686073  TIP3      839             0.0000000000
     27433      1039  TIP3      H2            -37.7634977768      -11.8171095976       27.3090735221  TIP3      839             0.0000000000
     27434      1040  TIP3      OH2           -28.2732413699       -3.7086245922       28.7779980237  TIP3      840             0.0000000000
     27435      1040  TIP3      H1            -27.6701130588       -4.4443118147       28.5115127082  TIP3      840             0.0000000000
     27436      1040  TIP3      H2            -28.5288119619       -4.0446137656       29.6443412177  TIP3      840             0.0000000000
     27437      1041  TIP3      OH2           -30.7330588855       -9.4381768699       30.7457551620  TIP3      841             0.0000000000
     27438      1041  TIP3      H1            -30.3955600819      -10.0608407136       30.0846583869  TIP3      841             0.0000000000
     27439      1041  TIP3      H2            -29.9225574940       -9.2810411367       31.2607160833  TIP3      841             0.0000000000
     27440      1042  TIP3      OH2           -22.1416627659      -17.7695738053       31.4653507912  TIP3      842             0.0000000000
     27441      1042  TIP3      H1            -21.9607724202      -17.1835597000       32.2329080679  TIP3      842             0.0000000000
     27442      1042  TIP3      H2            -21.5665804887      -17.3534105340       30.8062308024  TIP3      842             0.0000000000
     27443      1043  TIP3      OH2           -27.5655882921      -14.9664718322       31.0548058119  TIP3      843             0.0000000000
     27444      1043  TIP3      H1            -27.3964983003      -15.9246579331       31.0624677011  TIP3      843             0.0000000000
     27445      1043  TIP3      H2            -27.6650311874      -14.8273784141       30.0928944955  TIP3      843             0.0000000000
     27446      1044  TIP3      OH2           -34.4768175061      -16.8674583172       28.2754413027  TIP3      844             0.0000000000
     27447      1044  TIP3      H1            -34.3346387943      -16.0432779232       27.7720947764  TIP3      844             0.0000000000
     27448      1044  TIP3      H2            -34.8408232715      -17.4512063777       27.5747239260  TIP3      844             0.0000000000
     27449      1045  TIP3      OH2           -26.7329325215      -16.7902456999       26.6752223766  TIP3      845             0.0000000000
     27450      1045  TIP3      H1            -26.0479805424      -17.0999724768       27.3105496566  TIP3      845             0.0000000000
     27451      1045  TIP3      H2            -26.1945508750      -16.2486436439       26.0696749732  TIP3      845             0.0000000000
     27452      1046  TIP3      OH2           -37.7959401705      -14.4940712873       28.9913557460  TIP3      846             0.0000000000
     27453      1046  TIP3      H1            -37.1171739283      -15.0249406046       29.4403264506  TIP3      846             0.0000000000
     27454      1046  TIP3      H2            -37.7091528046      -14.7993923647       28.0769615022  TIP3      846             0.0000000000
     27455      1047  TIP3      OH2           -32.6686031457      -12.9078407788       28.3247609455  TIP3      847             0.0000000000
     27456      1047  TIP3      H1            -31.9975817064      -13.4910086839       28.7190329858  TIP3      847             0.0000000000
     27457      1047  TIP3      H2            -33.1802093278      -13.5631016280       27.8109617833  TIP3      847             0.0000000000
     27458      1048  TIP3      OH2           -21.6992227982      -16.3712471621       33.7451015212  TIP3      848             0.0000000000
     27459      1048  TIP3      H1            -22.3006099980      -15.6028129546       33.6324523380  TIP3      848             0.0000000000
     27460      1048  TIP3      H2            -21.6633192523      -16.4467293504       34.7051920726  TIP3      848             0.0000000000
     27461      1049  TIP3      OH2           -35.5399428232      -17.9716862383       32.3117229686  TIP3      849             0.0000000000
     27462      1049  TIP3      H1            -35.8182253172      -17.4113051125       31.5569470467  TIP3      849             0.0000000000
     27463      1049  TIP3      H2            -36.2310296712      -17.7439392754       32.9830057674  TIP3      849             0.0000000000
     27464      1050  TIP3      OH2           -28.2956986106       -8.5137439496       25.8688605001  TIP3      850             0.0000000000
     27465      1050  TIP3      H1            -28.5521455687       -8.7629218095       24.9716605680  TIP3      850             0.0000000000
     27466      1050  TIP3      H2            -28.5680834854       -7.5692655573       25.8962380487  TIP3      850             0.0000000000
     27467      1051  TIP3      OH2           -33.0350616051      -10.3381327242       32.5481189726  TIP3      851             0.0000000000
     27468      1051  TIP3      H1            -33.7458150351       -9.7019950785       32.7787369615  TIP3      851             0.0000000000
     27469      1051  TIP3      H2            -32.3298350751       -9.7351319267       32.2599005418  TIP3      851             0.0000000000
     27470      1052  TIP3      OH2           -24.9143279620      -17.4524764442       28.6249228280  TIP3      852             0.0000000000
     27471      1052  TIP3      H1            -25.1189697776      -18.2145603952       29.1735589606  TIP3      852             0.0000000000
     27472      1052  TIP3      H2            -24.2353255630      -17.0062083251       29.1543289559  TIP3      852             0.0000000000
     27473      1053  TIP3      OH2           -35.9867601139      -16.1367395796       30.3621216923  TIP3      853             0.0000000000
     27474      1053  TIP3      H1            -35.3751909550      -15.4318559245       30.6720668888  TIP3      853             0.0000000000
     27475      1053  TIP3      H2            -35.4600755440      -16.5276499175       29.6153324694  TIP3      853             0.0000000000
     27476      1054  TIP3      OH2           -34.5759196353       -8.3223098613       33.3608973146  TIP3      854             0.0000000000
     27477      1054  TIP3      H1            -34.6225536430       -7.4067140954       33.0354382208  TIP3      854             0.0000000000
     27478      1054  TIP3      H2            -35.4624614908       -8.4142316907       33.7879712261  TIP3      854             0.0000000000
     27479      1055  TIP3      OH2           -38.4873626248       -8.6861806871       24.1278279689  TIP3      855             0.0000000000
     27480      1055  TIP3      H1            -38.7588736572       -8.3360788742       23.2813531545  TIP3      855             0.0000000000
     27481      1055  TIP3      H2            -38.4066497128       -7.8899027691       24.7001786834  TIP3      855             0.0000000000
     27482      1056  TIP3      OH2           -24.8895276737       -7.0380664525       30.9182588149  TIP3      856             0.0000000000
     27483      1056  TIP3      H1            -25.8589521956       -6.9333182723       31.0407108293  TIP3      856             0.0000000000
     27484      1056  TIP3      H2            -24.6303814792       -6.1270133853       30.7193363747  TIP3      856             0.0000000000
     27485      1057  TIP3      OH2           -24.5773563310      -18.7678949033       32.3144004746  TIP3      857             0.0000000000
     27486      1057  TIP3      H1            -25.2971545798      -18.1302370457       32.2176586441  TIP3      857             0.0000000000
     27487      1057  TIP3      H2            -23.8600146770      -18.3497505335       31.7932543324  TIP3      857             0.0000000000
     27488      1058  TIP3      OH2           -31.6083502316      -20.6438269017       29.7765841511  TIP3      858             0.0000000000
     27489      1058  TIP3      H1            -31.7576474288      -21.6057554507       29.6979123334  TIP3      858             0.0000000000
     27490      1058  TIP3      H2            -32.4854377761      -20.3349727299       30.0840434605  TIP3      858             0.0000000000
     27491      1059  TIP3      OH2           -26.5969701865       -5.2443837692       27.5404518868  TIP3      859             0.0000000000
     27492      1059  TIP3      H1            -26.2026218445       -6.0062145539       27.0555138659  TIP3      859             0.0000000000
     27493      1059  TIP3      H2            -26.1883572908       -4.4842360599       27.1155869036  TIP3      859             0.0000000000
     27494      1060  TIP3      OH2           -25.4330959443       -7.3035229130       26.0323882597  TIP3      860             0.0000000000
     27495      1060  TIP3      H1            -25.6905579082       -8.0152514085       25.4140848868  TIP3      860             0.0000000000
     27496      1060  TIP3      H2            -25.3886144684       -7.8147066127       26.8609880812  TIP3      860             0.0000000000
     27497      1061  TIP3      OH2           -23.8079725441       -8.7353992518       34.5203551125  TIP3      861             0.0000000000
     27498      1061  TIP3      H1            -23.6584034956       -9.3947211205       33.8062111573  TIP3      861             0.0000000000
     27499      1061  TIP3      H2            -23.5957980616       -7.8983763754       34.0731227517  TIP3      861             0.0000000000
     27500      1062  TIP3      OH2           -29.3124784960      -11.8079827546       24.3094358973  TIP3      862             0.0000000000
     27501      1062  TIP3      H1            -30.0053720912      -11.2486894705       23.9049439822  TIP3      862             0.0000000000
     27502      1062  TIP3      H2            -28.6043912035      -11.8178026511       23.6260728373  TIP3      862             0.0000000000
     27503      1063  TIP3      OH2           -21.9124483032      -12.4247986858       32.5638359977  TIP3      863             0.0000000000
     27504      1063  TIP3      H1            -22.5746594530      -11.7056422411       32.6030503493  TIP3      863             0.0000000000
     27505      1063  TIP3      H2            -21.4199112711      -12.1930856454       31.7561720800  TIP3      863             0.0000000000
     27506      1064  TIP3      OH2           -25.7891072803      -11.6192427185       25.2456846781  TIP3      864             0.0000000000
     27507      1064  TIP3      H1            -26.5706073188      -11.3962272910       25.8054773005  TIP3      864             0.0000000000
     27508      1064  TIP3      H2            -25.3787288073      -12.3471391458       25.7381560398  TIP3      864             0.0000000000
     27509      1065  TIP3      OH2           -25.9287613825      -13.4767498855       34.3331247265  TIP3      865             0.0000000000
     27510      1065  TIP3      H1            -25.9214994774      -12.6566480809       34.8542066387  TIP3      865             0.0000000000
     27511      1065  TIP3      H2            -26.5579721591      -13.1850196316       33.6407933224  TIP3      865             0.0000000000
     27512      1066  TIP3      OH2           -34.2449318485      -10.9815020015       27.1413726521  TIP3      866             0.0000000000
     27513      1066  TIP3      H1            -34.5720203626      -11.3742283082       26.2973794407  TIP3      866             0.0000000000
     27514      1066  TIP3      H2            -33.6281690459      -11.6731046751       27.4644278561  TIP3      866             0.0000000000
     27515      1067  TIP3      OH2           -32.9346649014       -7.6026966924       29.8090015901  TIP3      867             0.0000000000
     27516      1067  TIP3      H1            -32.9370349435       -8.1200404248       28.9950552372  TIP3      867             0.0000000000
     27517      1067  TIP3      H2            -32.1469561311       -7.9547163744       30.2624384025  TIP3      867             0.0000000000
     27518      1068  TIP3      OH2           -33.9102293672      -12.2453232182       30.7762637625  TIP3      868             0.0000000000
     27519      1068  TIP3      H1            -33.3626750525      -12.1342229429       29.9777177561  TIP3      868             0.0000000000
     27520      1068  TIP3      H2            -33.5502683969      -11.5688842385       31.3917112807  TIP3      868             0.0000000000
     27521      1069  TIP3      OH2           -27.5032105385       -6.6610780737       31.4902305908  TIP3      869             0.0000000000
     27522      1069  TIP3      H1            -27.7874799621       -6.0250267388       32.1519573536  TIP3      869             0.0000000000
     27523      1069  TIP3      H2            -27.7540241846       -7.5143983992       31.9152436393  TIP3      869             0.0000000000
     27524      1070  TIP3      OH2           -32.9645080279       -7.8046264977       35.4800871708  TIP3      870             0.0000000000
     27525      1070  TIP3      H1            -33.3786383998       -7.0643526319       35.9688971677  TIP3      870             0.0000000000
     27526      1070  TIP3      H2            -33.6375568008       -8.0056866421       34.7831805644  TIP3      870             0.0000000000
     27527      1071  TIP3      OH2           -27.0377089687      -12.3644429687       22.9527205619  TIP3      871             0.0000000000
     27528      1071  TIP3      H1            -26.3945491806      -12.2811805557       23.6829867130  TIP3      871             0.0000000000
     27529      1071  TIP3      H2            -26.5806095626      -12.0058768831       22.1849785931  TIP3      871             0.0000000000
     27530      1072  TIP3      OH2           -35.9370437820      -11.5584740462       34.6154332979  TIP3      872             0.0000000000
     27531      1072  TIP3      H1            -35.9616062937      -10.9426163871       35.3668191133  TIP3      872             0.0000000000
     27532      1072  TIP3      H2            -36.9041759173      -11.6289789648       34.4404843375  TIP3      872             0.0000000000
     27533      1073  TIP3      OH2           -29.2608183709       -5.6883662563       26.3653442023  TIP3      873             0.0000000000
     27534      1073  TIP3      H1            -28.8329386671       -5.3892925159       27.1727570438  TIP3      873             0.0000000000
     27535      1073  TIP3      H2            -29.8599766930       -4.9700757100       26.1254023433  TIP3      873             0.0000000000
     27536      1074  TIP3      OH2           -34.7167436154       -5.7843159534       36.2321040130  TIP3      874             0.0000000000
     27537      1074  TIP3      H1            -34.7762139238       -5.8678659409       35.2616157853  TIP3      874             0.0000000000
     27538      1074  TIP3      H2            -35.6482876273       -5.8920124976       36.4939968416  TIP3      874             0.0000000000
     27539      1075  TIP3      OH2           -23.2663602555      -20.6948453771       22.7844760430  TIP3      875             0.0000000000
     27540      1075  TIP3      H1            -24.2153319979      -20.6155099564       23.0204013338  TIP3      875             0.0000000000
     27541      1075  TIP3      H2            -23.1361501944      -19.8775146366       22.2886242886  TIP3      875             0.0000000000
     27542      1076  TIP3      OH2           -35.2616690586      -11.9733878075       24.7109664853  TIP3      876             0.0000000000
     27543      1076  TIP3      H1            -35.5541482345      -11.1856233387       24.2092177664  TIP3      876             0.0000000000
     27544      1076  TIP3      H2            -35.9392791356      -12.6128223856       24.4787965743  TIP3      876             0.0000000000
     27545      1077  TIP3      OH2           -22.1016101891       -6.3620953433       21.2426262966  TIP3      877             0.0000000000
     27546      1077  TIP3      H1            -22.0096283233       -5.4083615228       21.2374499980  TIP3      877             0.0000000000
     27547      1077  TIP3      H2            -21.2175562897       -6.6447361581       21.0099551746  TIP3      877             0.0000000000
     27548      1078  TIP3      OH2           -39.0166532708       -9.5423625031       33.5274624487  TIP3      878             0.0000000000
     27549      1078  TIP3      H1            -39.6221331276       -9.5333684050       32.7673057239  TIP3      878             0.0000000000
     27550      1078  TIP3      H2            -39.1435422226      -10.4449464220       33.8335601092  TIP3      878             0.0000000000
     27551      1079  TIP3      OH2           -38.9486606083       -6.1733299042       30.1609320866  TIP3      879             0.0000000000
     27552      1079  TIP3      H1            -38.3173404593       -6.8387768539       30.4571730683  TIP3      879             0.0000000000
     27553      1079  TIP3      H2            -39.4535501389       -6.0160060575       30.9794210581  TIP3      879             0.0000000000
     27554      1080  TIP3      OH2           -21.1886120347       -6.0901571328       36.1035348693  TIP3      880             0.0000000000
     27555      1080  TIP3      H1            -21.3065420149       -7.0514460782       36.0766217565  TIP3      880             0.0000000000
     27556      1080  TIP3      H2            -22.0616848806       -5.8430775312       36.4912362219  TIP3      880             0.0000000000
     27557      1081  TIP3      OH2           -30.2315990910       -6.5522571621       34.9651544946  TIP3      881             0.0000000000
     27558      1081  TIP3      H1            -30.1741896901       -5.7098249070       35.4739757293  TIP3      881             0.0000000000
     27559      1081  TIP3      H2            -31.1041784451       -6.9111805784       35.2168304731  TIP3      881             0.0000000000
     27560      1082  TIP3      OH2           -29.6784012663       -2.7944552887       24.7443650595  TIP3      882             0.0000000000
     27561      1082  TIP3      H1            -29.9252944266       -2.8933310785       23.8030762788  TIP3      882             0.0000000000
     27562      1082  TIP3      H2            -29.8352221819       -1.8437313555       24.9229742778  TIP3      882             0.0000000000
     27563      1083  TIP3      OH2           -36.1578697629       -3.9386941444       26.5638049860  TIP3      883             0.0000000000
     27564      1083  TIP3      H1            -35.9823615239       -4.3348388512       27.4493379542  TIP3      883             0.0000000000
     27565      1083  TIP3      H2            -37.0053081951       -4.3452737841       26.3560389901  TIP3      883             0.0000000000
     27566      1084  TIP3      OH2           -27.2213140018       -3.9913539212       24.4272531688  TIP3      884             0.0000000000
     27567      1084  TIP3      H1            -28.1425038101       -3.7815073469       24.7212413462  TIP3      884             0.0000000000
     27568      1084  TIP3      H2            -26.9219476091       -4.5853528833       25.1363744240  TIP3      884             0.0000000000
     27569      1085  TIP3      OH2           -24.0413572047      -14.6238788598       36.5725964376  TIP3      885             0.0000000000
     27570      1085  TIP3      H1            -24.5181448113      -14.1736455311       35.8563244698  TIP3      885             0.0000000000
     27571      1085  TIP3      H2            -24.0566811905      -15.5435696105       36.2674749975  TIP3      885             0.0000000000
     27572      1086  TIP3      OH2           -36.9230039712       -8.1775016310       34.5741307974  TIP3      886             0.0000000000
     27573      1086  TIP3      H1            -36.7296623409       -8.5748966144       35.4471837941  TIP3      886             0.0000000000
     27574      1086  TIP3      H2            -37.7863089128       -8.5944348682       34.3445591470  TIP3      886             0.0000000000
     27575      1087  TIP3      OH2           -34.2077219808      -19.7320782874       30.5259004239  TIP3      887             0.0000000000
     27576      1087  TIP3      H1            -35.1163143650      -19.8631894289       30.1634276599  TIP3      887             0.0000000000
     27577      1087  TIP3      H2            -34.3523920868      -18.9060418416       31.0146781138  TIP3      887             0.0000000000
     27578      1088  TIP3      OH2           -29.5759266786      -20.0771799880       33.8868486394  TIP3      888             0.0000000000
     27579      1088  TIP3      H1            -29.1852852056      -20.4974695543       34.6752967910  TIP3      888             0.0000000000
     27580      1088  TIP3      H2            -30.5477765714      -20.1889395179       34.0350433019  TIP3      888             0.0000000000
     27581      1089  TIP3      OH2           -26.2891443332      -16.2256232997       34.7908548840  TIP3      889             0.0000000000
     27582      1089  TIP3      H1            -26.8551413737      -16.4415720314       35.5710519456  TIP3      889             0.0000000000
     27583      1089  TIP3      H2            -26.4747446358      -15.2984768274       34.5622478444  TIP3      889             0.0000000000
     27584      1090  TIP3      OH2           -34.0897685332      -14.7777828304       31.7877368633  TIP3      890             0.0000000000
     27585      1090  TIP3      H1            -34.8274219553      -14.7856038530       32.4263642621  TIP3      890             0.0000000000
     27586      1090  TIP3      H2            -34.1698983332      -13.8684502069       31.4160169227  TIP3      890             0.0000000000
     27587      1091  TIP3      OH2           -34.1516138734      -14.6561966747       26.6484154325  TIP3      891             0.0000000000
     27588      1091  TIP3      H1            -35.0917071056      -14.8890409205       26.5041213664  TIP3      891             0.0000000000
     27589      1091  TIP3      H2            -33.7804518401      -14.9410444532       25.7857332751  TIP3      891             0.0000000000
     27590      1092  TIP3      OH2           -28.6516468713      -14.1640084862       25.3942079920  TIP3      892             0.0000000000
     27591      1092  TIP3      H1            -29.0401947808      -13.3217569418       25.0656453361  TIP3      892             0.0000000000
     27592      1092  TIP3      H2            -27.9584458158      -14.2901372187       24.7329156775  TIP3      892             0.0000000000
     27593      1093  TIP3      OH2           -29.5855236896      -13.9374066764       36.8515354801  TIP3      893             0.0000000000
     27594      1093  TIP3      H1            -30.1098106069      -14.7137838792       37.1621532673  TIP3      893             0.0000000000
     27595      1093  TIP3      H2            -28.7472033125      -14.0573744699       37.3281847732  TIP3      893             0.0000000000
     27596      1094  TIP3      OH2           -27.6104178447      -14.6617238899       28.2504619492  TIP3      894             0.0000000000
     27597      1094  TIP3      H1            -27.8825253843      -14.0942858468       27.5080957397  TIP3      894             0.0000000000
     27598      1094  TIP3      H2            -27.5011857968      -15.5057682805       27.7672397214  TIP3      894             0.0000000000
     27599      1095  TIP3      OH2           -36.4406100536      -14.5286300624       33.4642905005  TIP3      895             0.0000000000
     27600      1095  TIP3      H1            -36.4521297469      -14.0932579117       34.3334537133  TIP3      895             0.0000000000
     27601      1095  TIP3      H2            -36.9399228201      -15.3395990333       33.6579974759  TIP3      895             0.0000000000
     27602      1096  TIP3      OH2           -33.1119317609      -17.0384194643       20.4152583215  TIP3      896             0.0000000000
     27603      1096  TIP3      H1            -33.5734332660      -17.5756291032       21.0628356257  TIP3      896             0.0000000000
     27604      1096  TIP3      H2            -33.7859736781      -16.7926326917       19.7786415704  TIP3      896             0.0000000000
     27605      1097  TIP3      OH2           -39.7967462884      -17.3939075253       27.3950329087  TIP3      897             0.0000000000
     27606      1097  TIP3      H1            -39.1498729775      -17.5066212274       28.1149435192  TIP3      897             0.0000000000
     27607      1097  TIP3      H2            -39.3799676310      -17.8737796231       26.6677748740  TIP3      897             0.0000000000
     27608      1098  TIP3      OH2           -38.5617830973      -16.6028673353       22.8291344498  TIP3      898             0.0000000000
     27609      1098  TIP3      H1            -38.0679808650      -16.0393418755       22.2206688283  TIP3      898             0.0000000000
     27610      1098  TIP3      H2            -39.2686374502      -16.0252801181       23.1100490058  TIP3      898             0.0000000000
     27611      1099  TIP3      OH2           -28.4092862512      -13.0744008115       32.8128286768  TIP3      899             0.0000000000
     27612      1099  TIP3      H1            -28.0266824832      -13.7606341319       32.2292241836  TIP3      899             0.0000000000
     27613      1099  TIP3      H2            -28.8760195087      -13.6013552978       33.4858422777  TIP3      899             0.0000000000
     27614      1100  TIP3      OH2           -31.6107774445      -17.0943948500       27.6647482841  TIP3      900             0.0000000000
     27615      1100  TIP3      H1            -32.5462018440      -17.0897544742       27.9535190507  TIP3      900             0.0000000000
     27616      1100  TIP3      H2            -31.1299593256      -17.2628896669       28.4879035527  TIP3      900             0.0000000000
     27617      1101  TIP3      OH2           -36.7969571205      -15.5390532661       26.4976638476  TIP3      901             0.0000000000
     27618      1101  TIP3      H1            -37.6888260930      -15.4066893895       26.1220455588  TIP3      901             0.0000000000
     27619      1101  TIP3      H2            -36.5447649992      -16.3974853239       26.1138477616  TIP3      901             0.0000000000
     27620      1102  TIP3      OH2           -33.1776883156      -15.4665321550       24.1698834003  TIP3      902             0.0000000000
     27621      1102  TIP3      H1            -32.2148292324      -15.4049916352       24.3055413524  TIP3      902             0.0000000000
     27622      1102  TIP3      H2            -33.3821545803      -14.8328295431       23.4614738319  TIP3      902             0.0000000000
     27623      1103  TIP3      OH2           -27.1886504450      -17.8717662106       30.9001691354  TIP3      903             0.0000000000
     27624      1103  TIP3      H1            -27.8816216089      -17.8114280043       31.5961554219  TIP3      903             0.0000000000
     27625      1103  TIP3      H2            -27.7004951992      -18.1153084491       30.1144577986  TIP3      903             0.0000000000
     27626      1104  TIP3      OH2           -34.4617915427      -14.3192465422       21.7641892409  TIP3      904             0.0000000000
     27627      1104  TIP3      H1            -35.0008557612      -14.6505741380       21.0303144357  TIP3      904             0.0000000000
     27628      1104  TIP3      H2            -33.6362310248      -14.1149641331       21.2840826284  TIP3      904             0.0000000000
     27629      1105  TIP3      OH2           -23.9972595117       -2.2179328313       37.2070834150  TIP3      905             0.0000000000
     27630      1105  TIP3      H1            -23.7274391870       -1.8459059953       36.3461327841  TIP3      905             0.0000000000
     27631      1105  TIP3      H2            -23.2767137078       -1.8981020022       37.7731838386  TIP3      905             0.0000000000
     27632      1106  TIP3      OH2           -36.3082505568       -9.7499926555       36.8039953995  TIP3      906             0.0000000000
     27633      1106  TIP3      H1            -35.5706577865       -9.5130548342       37.3972798038  TIP3      906             0.0000000000
     27634      1106  TIP3      H2            -37.0742911136       -9.6681202506       37.4041756534  TIP3      906             0.0000000000
     27635      1107  TIP3      OH2           -30.3306008812      -14.3388105226       29.5457316505  TIP3      907             0.0000000000
     27636      1107  TIP3      H1            -29.7241060968      -14.8687017066       29.0169319178  TIP3      907             0.0000000000
     27637      1107  TIP3      H2            -30.4710568656      -14.8886220804       30.3280720186  TIP3      907             0.0000000000
     27638      1108  TIP3      OH2           -35.3058238490      -18.1930260613       25.9815076852  TIP3      908             0.0000000000
     27639      1108  TIP3      H1            -35.6277253490      -19.1132998067       25.9732269311  TIP3      908             0.0000000000
     27640      1108  TIP3      H2            -34.5234081631      -18.2683896176       25.4229576912  TIP3      908             0.0000000000
     27641      1109  TIP3      OH2           -31.6813242784      -16.0116820553       31.9575293207  TIP3      909             0.0000000000
     27642      1109  TIP3      H1            -32.5075576662      -15.4937230927       32.0435934422  TIP3      909             0.0000000000
     27643      1109  TIP3      H2            -31.1283113450      -15.6583933058       32.6802467630  TIP3      909             0.0000000000
     27644      1110  TIP3      OH2           -31.0840346494       -9.8403571013       23.6702527407  TIP3      910             0.0000000000
     27645      1110  TIP3      H1            -31.9116503566      -10.2359535968       23.3293382726  TIP3      910             0.0000000000
     27646      1110  TIP3      H2            -31.3112380071       -9.6416683825       24.5955673987  TIP3      910             0.0000000000
     27647      1111  TIP3      OH2           -23.9061485636      -10.5843920061       32.4594929747  TIP3      911             0.0000000000
     27648      1111  TIP3      H1            -23.3434969526      -10.1071156498       31.8233933798  TIP3      911             0.0000000000
     27649      1111  TIP3      H2            -24.7668349120      -10.5427639907       31.9954416161  TIP3      911             0.0000000000
     27650      1112  TIP3      OH2           -29.6020994365       -9.5168658604       34.9015394291  TIP3      912             0.0000000000
     27651      1112  TIP3      H1            -29.9498060413       -9.9481850641       35.6890789758  TIP3      912             0.0000000000
     27652      1112  TIP3      H2            -29.8607723763       -8.5962310332       35.0086420740  TIP3      912             0.0000000000
     27653      1113  TIP3      OH2           -35.9781360777      -10.3847493038       29.4588816309  TIP3      913             0.0000000000
     27654      1113  TIP3      H1            -35.3062750413      -10.4706243708       28.7576506767  TIP3      913             0.0000000000
     27655      1113  TIP3      H2            -35.9216358782      -11.2529896788       29.8967121792  TIP3      913             0.0000000000
     27656      1114  TIP3      OH2           -38.4580486727      -12.3696717382       34.6111982652  TIP3      914             0.0000000000
     27657      1114  TIP3      H1            -38.6609251009      -12.4503127214       35.5655053701  TIP3      914             0.0000000000
     27658      1114  TIP3      H2            -39.3899203141      -12.4634711889       34.3068471674  TIP3      914             0.0000000000
     27659      1115  TIP3      OH2           -31.9812936995      -12.4260172504       36.8901210775  TIP3      915             0.0000000000
     27660      1115  TIP3      H1            -32.3038107604      -12.7411139675       36.0329482617  TIP3      915             0.0000000000
     27661      1115  TIP3      H2            -31.0607829904      -12.7558713506       36.8900426093  TIP3      915             0.0000000000
     27662      1116  TIP3      OH2           -27.2959628894       -7.0947411850       34.8497257882  TIP3      916             0.0000000000
     27663      1116  TIP3      H1            -28.2212139615       -6.9170655715       34.6148060672  TIP3      916             0.0000000000
     27664      1116  TIP3      H2            -27.3319668188       -6.8052892099       35.7818389441  TIP3      916             0.0000000000
     27665      1117  TIP3      OH2           -21.6230015822      -14.8990023832       23.2247646331  TIP3      917             0.0000000000
     27666      1117  TIP3      H1            -22.2346603832      -15.2039552195       22.5242302640  TIP3      917             0.0000000000
     27667      1117  TIP3      H2            -21.5794564419      -13.9670835762       22.9975739895  TIP3      917             0.0000000000
     27668      1118  TIP3      OH2           -21.6410903327       -9.0517949571       36.0397054469  TIP3      918             0.0000000000
     27669      1118  TIP3      H1            -22.5344716316       -8.8331445775       35.6760905192  TIP3      918             0.0000000000
     27670      1118  TIP3      H2            -21.0958399260       -9.1066333602       35.2273492877  TIP3      918             0.0000000000
     27671      1119  TIP3      OH2           -23.3645740883       -6.0507060412       23.6169292241  TIP3      919             0.0000000000
     27672      1119  TIP3      H1            -23.6974159500       -6.8848927054       24.0044808354  TIP3      919             0.0000000000
     27673      1119  TIP3      H2            -23.0676285288       -6.3300384185       22.7244860700  TIP3      919             0.0000000000
     27674      1120  TIP3      OH2           -26.1313535145      -11.2745296000       30.7411828061  TIP3      920             0.0000000000
     27675      1120  TIP3      H1            -27.0710146247      -11.4849639397       30.6262744009  TIP3      920             0.0000000000
     27676      1120  TIP3      H2            -25.6992932545      -12.0312611377       30.3000520427  TIP3      920             0.0000000000
     27677      1121  TIP3      OH2           -33.6255336338       -6.9290122363       26.8681215475  TIP3      921             0.0000000000
     27678      1121  TIP3      H1            -33.1156316020       -6.1431579334       26.6101291528  TIP3      921             0.0000000000
     27679      1121  TIP3      H2            -34.5076103214       -6.7044621028       26.5415204470  TIP3      921             0.0000000000
     27680      1122  TIP3      OH2           -32.1960055938       -9.2640026873       26.3432419862  TIP3      922             0.0000000000
     27681      1122  TIP3      H1            -32.5153388351       -8.3470504544       26.4368616795  TIP3      922             0.0000000000
     27682      1122  TIP3      H2            -32.9041514051       -9.7630123496       26.7991521902  TIP3      922             0.0000000000
     27683      1123  TIP3      OH2           -31.7567378722       -5.0867572328       32.7736561922  TIP3      923             0.0000000000
     27684      1123  TIP3      H1            -31.2946480084       -4.2845990076       32.4805701820  TIP3      923             0.0000000000
     27685      1123  TIP3      H2            -31.1274329561       -5.4339693317       33.4329683023  TIP3      923             0.0000000000
     27686      1124  TIP3      OH2           -33.5214878766       -4.2836246109       25.9517959044  TIP3      924             0.0000000000
     27687      1124  TIP3      H1            -34.4831485163       -4.1282848066       26.0482411669  TIP3      924             0.0000000000
     27688      1124  TIP3      H2            -33.1545273647       -3.4329623254       26.2495154381  TIP3      924             0.0000000000
     27689      1125  TIP3      OH2           -28.2289305706       -9.0973368950       32.3849955596  TIP3      925             0.0000000000
     27690      1125  TIP3      H1            -28.5473588936       -9.2860635808       33.2923688112  TIP3      925             0.0000000000
     27691      1125  TIP3      H2            -27.5848846420       -9.8042792145       32.2184766078  TIP3      925             0.0000000000
     27692      1126  TIP3      OH2           -25.4087477955       -4.5183149735       34.8826534172  TIP3      926             0.0000000000
     27693      1126  TIP3      H1            -26.0983005427       -5.0075331839       34.3960070927  TIP3      926             0.0000000000
     27694      1126  TIP3      H2            -25.2311215449       -3.8133811428       34.2289073255  TIP3      926             0.0000000000
     27695      1127  TIP3      OH2           -37.3212377566      -17.2156852626       34.2645886374  TIP3      927             0.0000000000
     27696      1127  TIP3      H1            -38.2285894201      -16.8814541461       34.2634340467  TIP3      927             0.0000000000
     27697      1127  TIP3      H2            -37.4321402295      -18.0877171814       34.6767083472  TIP3      927             0.0000000000
     27698      1128  TIP3      OH2           -25.0947166382       -9.4246309323       23.7417607223  TIP3      928             0.0000000000
     27699      1128  TIP3      H1            -25.3463003406      -10.2083638473       24.2586422684  TIP3      928             0.0000000000
     27700      1128  TIP3      H2            -24.1466257634       -9.3731536954       23.8885076157  TIP3      928             0.0000000000
     27701      1129  TIP3      OH2           -37.7414716086       -5.4737329168       32.6910660341  TIP3      929             0.0000000000
     27702      1129  TIP3      H1            -37.4231491532       -6.3854951055       32.6923640245  TIP3      929             0.0000000000
     27703      1129  TIP3      H2            -37.4866622662       -5.1838460995       33.5705181568  TIP3      929             0.0000000000
     27704      1130  TIP3      OH2           -33.1113192275       -7.3975785882       22.4627445806  TIP3      930             0.0000000000
     27705      1130  TIP3      H1            -32.7062522050       -7.9195745634       23.1612893053  TIP3      930             0.0000000000
     27706      1130  TIP3      H2            -32.8717658764       -6.4759179855       22.6972660361  TIP3      930             0.0000000000
     27707      1131  TIP3      OH2           -36.5008935916      -10.1653378352       22.8380582908  TIP3      931             0.0000000000
     27708      1131  TIP3      H1            -37.1524362067       -9.7922277326       23.4623964368  TIP3      931             0.0000000000
     27709      1131  TIP3      H2            -35.9246698361       -9.4003136303       22.6540776285  TIP3      931             0.0000000000
     27710      1132  TIP3      OH2           -28.6136346137      -17.4832498895       33.2317297810  TIP3      932             0.0000000000
     27711      1132  TIP3      H1            -27.8969695268      -17.4229645378       33.8725713344  TIP3      932             0.0000000000
     27712      1132  TIP3      H2            -28.9962547046      -18.3597587985       33.4355866660  TIP3      932             0.0000000000
     27713      1133  TIP3      OH2           -30.6439331262      -16.1806890315       25.1566065339  TIP3      933             0.0000000000
     27714      1133  TIP3      H1            -29.8723902512      -15.5761316747       25.1533652207  TIP3      933             0.0000000000
     27715      1133  TIP3      H2            -30.8983423736      -16.2724868830       26.0925229060  TIP3      933             0.0000000000
     27716      1134  TIP3      OH2           -30.0875459866      -15.1382155602       34.3265363460  TIP3      934             0.0000000000
     27717      1134  TIP3      H1            -30.0110084196      -14.5803161216       35.1259775475  TIP3      934             0.0000000000
     27718      1134  TIP3      H2            -29.4225138510      -15.8319416363       34.4216838522  TIP3      934             0.0000000000
     27719      1135  TIP3      OH2           -29.7614591922      -19.0895843708       26.0216249564  TIP3      935             0.0000000000
     27720      1135  TIP3      H1            -30.1247488011      -18.4700323189       26.6849636708  TIP3      935             0.0000000000
     27721      1135  TIP3      H2            -29.0957240697      -18.5147015763       25.6088889414  TIP3      935             0.0000000000
     27722      1136  TIP3      OH2           -32.9159505304       -4.6761046264       23.1565493403  TIP3      936             0.0000000000
     27723      1136  TIP3      H1            -32.6242662016       -3.8990787663       22.6311345030  TIP3      936             0.0000000000
     27724      1136  TIP3      H2            -33.0111458025       -4.3413726713       24.0631543423  TIP3      936             0.0000000000
     27725      1137  TIP3      OH2           -34.1296378236      -18.0272004161       22.7760983730  TIP3      937             0.0000000000
     27726      1137  TIP3      H1            -34.1665020864      -17.1078179863       23.0941526401  TIP3      937             0.0000000000
     27727      1137  TIP3      H2            -33.1942898325      -18.2374039698       22.9785311022  TIP3      937             0.0000000000
     27728      1138  TIP3      OH2           -23.9062374396      -17.2626891553       35.1807281148  TIP3      938             0.0000000000
     27729      1138  TIP3      H1            -24.8351087559      -16.9522535380       35.0461914020  TIP3      938             0.0000000000
     27730      1138  TIP3      H2            -23.6065983008      -17.2826136701       34.2551200957  TIP3      938             0.0000000000
     27731      1139  TIP3      OH2           -25.3037213271      -13.4779173419       29.1956564337  TIP3      939             0.0000000000
     27732      1139  TIP3      H1            -26.1154720089      -13.9341146964       28.8982624328  TIP3      939             0.0000000000
     27733      1139  TIP3      H2            -24.8175699623      -14.1700490564       29.6971108843  TIP3      939             0.0000000000
     27734      1140  TIP3      OH2           -35.8719596356       -7.5320454723       21.7670480233  TIP3      940             0.0000000000
     27735      1140  TIP3      H1            -35.2079614796       -6.8954100861       22.0784742914  TIP3      940             0.0000000000
     27736      1140  TIP3      H2            -35.3261230510       -7.9828238790       21.0882338490  TIP3      940             0.0000000000
     27737      1141  TIP3      OH2           -24.2264768780       -4.1925591010       30.8800902428  TIP3      941             0.0000000000
     27738      1141  TIP3      H1            -24.3700112552       -3.5914529805       30.1346405171  TIP3      941             0.0000000000
     27739      1141  TIP3      H2            -23.2629805550       -4.2128929111       31.0377259740  TIP3      941             0.0000000000
     27740      1142  TIP3      OH2           -36.6939435382      -20.1061940039       29.6431580027  TIP3      942             0.0000000000
     27741      1142  TIP3      H1            -36.9330537277      -20.0960769157       28.6886558698  TIP3      942             0.0000000000
     27742      1142  TIP3      H2            -37.1672270671      -20.9255083921       29.9113204162  TIP3      942             0.0000000000
     27743      1143  TIP3      OH2           -37.8012369517       -6.1950120936       25.7515119378  TIP3      943             0.0000000000
     27744      1143  TIP3      H1            -38.6263702787       -5.7061284537       25.8073861934  TIP3      943             0.0000000000
     27745      1143  TIP3      H2            -37.2468470827       -5.6932468654       25.1542661652  TIP3      943             0.0000000000
     27746      1144  TIP3      OH2           -38.5434213610       -3.5033024264       37.1009073199  TIP3      944             0.0000000000
     27747      1144  TIP3      H1            -37.9493854405       -3.7401114828       37.8341368948  TIP3      944             0.0000000000
     27748      1144  TIP3      H2            -38.9884088595       -4.3377128873       36.9068916937  TIP3      944             0.0000000000
     27749      1145  TIP3      OH2           -33.9018598886       -4.6003768076       38.6994049787  TIP3      945             0.0000000000
     27750      1145  TIP3      H1            -33.1602795494       -5.1182773619       39.0321076227  TIP3      945             0.0000000000
     27751      1145  TIP3      H2            -33.9434662484       -4.8961161249       37.7681892742  TIP3      945             0.0000000000
     27752      1146  TIP3      OH2           -27.3950921216       -6.2240289817       37.4432934492  TIP3      946             0.0000000000
     27753      1146  TIP3      H1            -27.7097166890       -7.1112929918       37.7182979037  TIP3      946             0.0000000000
     27754      1146  TIP3      H2            -26.6261754028       -6.1047941644       38.0352341043  TIP3      946             0.0000000000
     27755      1147  TIP3      OH2           -38.5902341292       -9.8160740110       38.1767777521  TIP3      947             0.0000000000
     27756      1147  TIP3      H1            -38.4504367871      -10.7113446887       37.8063249306  TIP3      947             0.0000000000
     27757      1147  TIP3      H2            -39.0722370611       -9.3931001477       37.4586792506  TIP3      947             0.0000000000
     27758      1148  TIP3      OH2           -34.3549512270       -9.4521419424       20.1480769799  TIP3      948             0.0000000000
     27759      1148  TIP3      H1            -34.1917984013      -10.2183701315       20.7137201979  TIP3      948             0.0000000000
     27760      1148  TIP3      H2            -33.6299292621       -9.5225556007       19.5148467136  TIP3      948             0.0000000000
     27761      1149  TIP3      OH2           -31.9537367060       -9.7660812889       37.4649450822  TIP3      949             0.0000000000
     27762      1149  TIP3      H1            -32.2930452068       -9.4530083132       36.6024357285  TIP3      949             0.0000000000
     27763      1149  TIP3      H2            -31.8787344071      -10.7427038329       37.3565049167  TIP3      949             0.0000000000
     27764      1150  TIP3      OH2           -26.2550562620       -9.9072467396       34.8590071079  TIP3      950             0.0000000000
     27765      1150  TIP3      H1            -25.4665704741       -9.3253670423       34.7980464787  TIP3      950             0.0000000000
     27766      1150  TIP3      H2            -26.9552134082       -9.2388840860       34.8929716762  TIP3      950             0.0000000000
     27767      1151  TIP3      OH2           -37.8015267417      -12.5128087646       37.4443660183  TIP3      951             0.0000000000
     27768      1151  TIP3      H1            -37.3361583969      -13.3612336611       37.3469143937  TIP3      951             0.0000000000
     27769      1151  TIP3      H2            -37.9915261346      -12.5440306715       38.3937502320  TIP3      951             0.0000000000
     27770      1152  TIP3      OH2           -33.1050052963      -11.4160396944       22.4896639828  TIP3      952             0.0000000000
     27771      1152  TIP3      H1            -33.6327941076      -11.9316935486       23.1213005210  TIP3      952             0.0000000000
     27772      1152  TIP3      H2            -32.7927692394      -12.1029792506       21.8542541280  TIP3      952             0.0000000000
     27773      1153  TIP3      OH2           -33.8547217660      -13.5803907728       34.8199522451  TIP3      953             0.0000000000
     27774      1153  TIP3      H1            -34.4762384004      -12.8754349137       35.0736493130  TIP3      953             0.0000000000
     27775      1153  TIP3      H2            -33.4552213438      -13.2126855967       34.0112469918  TIP3      953             0.0000000000
     27776      1154  TIP3      OH2           -32.0983641342      -13.1197434060       20.6748481614  TIP3      954             0.0000000000
     27777      1154  TIP3      H1            -32.2309737460      -13.3402202522       19.7433779822  TIP3      954             0.0000000000
     27778      1154  TIP3      H2            -31.1293917447      -13.1395054247       20.7445293403  TIP3      954             0.0000000000
     27779      1155  TIP3      OH2           -28.7731425544      -11.0145441526       38.1538813868  TIP3      955             0.0000000000
     27780      1155  TIP3      H1            -27.8167513209      -11.0294748512       38.0275865887  TIP3      955             0.0000000000
     27781      1155  TIP3      H2            -28.9450371894      -11.7823939647       38.7221304592  TIP3      955             0.0000000000
     27782      1156  TIP3      OH2           -33.4267913904      -16.1961311418       35.8686792983  TIP3      956             0.0000000000
     27783      1156  TIP3      H1            -33.3257993566      -16.9109815140       35.2119104583  TIP3      956             0.0000000000
     27784      1156  TIP3      H2            -33.5156202448      -15.3900339964       35.3202399302  TIP3      956             0.0000000000
     27785      1157  TIP3      OH2           -33.0371447215      -17.8259960375       33.4260561747  TIP3      957             0.0000000000
     27786      1157  TIP3      H1            -32.5301407159      -17.3590188679       32.7195721507  TIP3      957             0.0000000000
     27787      1157  TIP3      H2            -33.9322112065      -17.9006947447       33.0226375909  TIP3      957             0.0000000000
     27788      1158  TIP3      OH2           -31.4984649232      -12.3316477112       33.6692310291  TIP3      958             0.0000000000
     27789      1158  TIP3      H1            -30.7456637175      -12.4996013699       33.0972540538  TIP3      958             0.0000000000
     27790      1158  TIP3      H2            -31.8665285162      -11.5005065781       33.3310821349  TIP3      958             0.0000000000
     27791      1159  TIP3      OH2           -27.1051345671      -14.5849011548       38.6280906665  TIP3      959             0.0000000000
     27792      1159  TIP3      H1            -26.8687918395      -15.5193735273       38.5391632302  TIP3      959             0.0000000000
     27793      1159  TIP3      H2            -26.2414933751      -14.1406196544       38.6639810689  TIP3      959             0.0000000000
     27794      1160  TIP3      OH2           -25.7614222362      -11.7888372050       36.7999233532  TIP3      960             0.0000000000
     27795      1160  TIP3      H1            -26.0145978014      -11.0693418813       36.1810099406  TIP3      960             0.0000000000
     27796      1160  TIP3      H2            -24.8050350052      -11.8206160192       36.6086012494  TIP3      960             0.0000000000
     27797      1161  TIP3      OH2           -34.9921789799      -14.9387954891       37.7890199545  TIP3      961             0.0000000000
     27798      1161  TIP3      H1            -35.7505416427      -15.5311927982       37.6219303059  TIP3      961             0.0000000000
     27799      1161  TIP3      H2            -34.3449698044      -15.3096742337       37.1618210010  TIP3      961             0.0000000000
     27800      1162  TIP3      OH2           -32.2503073739      -20.3854620018       33.8115049480  TIP3      962             0.0000000000
     27801      1162  TIP3      H1            -32.4378076001      -19.4235534055       33.7144747143  TIP3      962             0.0000000000
     27802      1162  TIP3      H2            -32.9986970490      -20.7569210771       33.3123615529  TIP3      962             0.0000000000
     27803      1163  TIP3      OH2           -30.9722840454      -16.0608113975       37.4447295333  TIP3      963             0.0000000000
     27804      1163  TIP3      H1            -31.2947699693      -16.2922572583       38.3386774733  TIP3      963             0.0000000000
     27805      1163  TIP3      H2            -31.7580126723      -16.2609678863       36.9030277309  TIP3      963             0.0000000000
     27806      1164  TIP3      OH2           -28.2573867692      -16.9154979135       36.5343968693  TIP3      964             0.0000000000
     27807      1164  TIP3      H1            -29.2225098109      -16.8606609026       36.6427604474  TIP3      964             0.0000000000
     27808      1164  TIP3      H2            -27.9945336768      -17.5555818384       37.2238104677  TIP3      964             0.0000000000
     27809      1165  TIP3      OH2           -26.6762766735      -18.2961462194       38.4319312551  TIP3      965             0.0000000000
     27810      1165  TIP3      H1            -26.7240508683      -19.2741634278       38.4636006140  TIP3      965             0.0000000000
     27811      1165  TIP3      H2            -26.9238856277      -18.0037900965       39.3315340936  TIP3      965             0.0000000000
     27812      1166  TIP3      OH2           -36.7852408412      -17.0399130118       37.5644658075  TIP3      966             0.0000000000
     27813      1166  TIP3      H1            -36.6417730142      -17.7821276571       36.9489841994  TIP3      966             0.0000000000
     27814      1166  TIP3      H2            -36.9822772416      -17.4838714274       38.4122098555  TIP3      966             0.0000000000
     27815      1167  TIP3      OH2           -32.0347502750      -20.9932257457       36.5148421998  TIP3      967             0.0000000000
     27816      1167  TIP3      H1            -31.3563273557      -21.6977836083       36.4991903964  TIP3      967             0.0000000000
     27817      1167  TIP3      H2            -32.1504768282      -20.8534864597       35.5544654202  TIP3      967             0.0000000000
     27818      1168  TIP3      OH2           -31.6734136758      -19.3823289537       38.6336407529  TIP3      968             0.0000000000
     27819      1168  TIP3      H1            -31.8468028315      -19.8877047215       37.8007574032  TIP3      968             0.0000000000
     27820      1168  TIP3      H2            -32.2718757584      -18.6168768648       38.5320329602  TIP3      968             0.0000000000
     27821      1169  TIP3      OH2           -32.1970364049       -2.3879988301       21.8124165397  TIP3      969             0.0000000000
     27822      1169  TIP3      H1            -31.2257377378       -2.4265039766       21.8420915726  TIP3      969             0.0000000000
     27823      1169  TIP3      H2            -32.3868090236       -1.8527261356       21.0409451956  TIP3      969             0.0000000000
     27824      1170  TIP3      OH2            40.2992628931       -2.3252890460       26.0167647102  TIP3      970             0.0000000000
     27825      1170  TIP3      H1             39.4735176662       -2.7566025689       25.7273674042  TIP3      970             0.0000000000
     27826      1170  TIP3      H2             40.4070719621       -2.9332260102       26.7791936946  TIP3      970             0.0000000000
     27827      1171  TIP3      OH2           -38.9337088007       -4.3657589851       28.2059420841  TIP3      971             0.0000000000
     27828      1171  TIP3      H1            -39.2585327604       -5.2724832957       28.3797979984  TIP3      971             0.0000000000
     27829      1171  TIP3      H2            -38.6955807284       -4.0618897866       29.1085622845  TIP3      971             0.0000000000
     27830      1172  TIP3      OH2           -21.5398577790       -3.4437209002       31.0647595488  TIP3      972             0.0000000000
     27831      1172  TIP3      H1            -21.4495053785       -3.4749963852       32.0422917232  TIP3      972             0.0000000000
     27832      1172  TIP3      H2            -20.6632997785       -3.1100071105       30.8135560521  TIP3      972             0.0000000000
     27833      1173  TIP3      OH2           -21.9255386191       -3.9801868539       33.9580252077  TIP3      973             0.0000000000
     27834      1173  TIP3      H1            -22.4159578703       -4.7643450605       33.6288024625  TIP3      973             0.0000000000
     27835      1173  TIP3      H2            -21.4595311322       -4.4082658075       34.7021522288  TIP3      973             0.0000000000
     27836      1174  TIP3      OH2           -23.4893231131       -8.2623885157       38.6682913955  TIP3      974             0.0000000000
     27837      1174  TIP3      H1            -24.3986062994       -8.2877465838       39.0276492719  TIP3      974             0.0000000000
     27838      1174  TIP3      H2            -23.1176309147       -7.4628385140       39.0947772970  TIP3      974             0.0000000000
     27839      1175  TIP3      OH2           -22.1358936826       -9.9524280025       24.0810552321  TIP3      975             0.0000000000
     27840      1175  TIP3      H1            -21.3044868323       -9.5352793850       24.3424923443  TIP3      975             0.0000000000
     27841      1175  TIP3      H2            -22.2026191121      -10.6605598947       24.7624248158  TIP3      975             0.0000000000
     27842      1176  TIP3      OH2           -21.7925688963      -11.8518903707       25.9650008591  TIP3      976             0.0000000000
     27843      1176  TIP3      H1            -22.5544444556      -12.3407792064       26.3580343796  TIP3      976             0.0000000000
     27844      1176  TIP3      H2            -21.2101764882      -11.7290855875       26.7490620700  TIP3      976             0.0000000000
     27845      1177  TIP3      OH2           -22.0422264154       -9.1743679026       30.9566004758  TIP3      977             0.0000000000
     27846      1177  TIP3      H1            -21.2295931833       -9.5617615204       30.5777265674  TIP3      977             0.0000000000
     27847      1177  TIP3      H2            -21.9069950873       -8.2173651647       30.7889279091  TIP3      977             0.0000000000
     27848      1178  TIP3      OH2           -23.5049065749       -6.2310863898       33.2008635784  TIP3      978             0.0000000000
     27849      1178  TIP3      H1            -24.1891914505       -5.9335911191       33.8268611208  TIP3      978             0.0000000000
     27850      1178  TIP3      H2            -24.0592893283       -6.6734777033       32.5258327016  TIP3      978             0.0000000000
     27851      1179  TIP3      OH2           -23.0612154388      -14.8247914169       20.8804340037  TIP3      979             0.0000000000
     27852      1179  TIP3      H1            -23.1623865016      -14.1132485457       20.2289196380  TIP3      979             0.0000000000
     27853      1179  TIP3      H2            -23.3664833138      -15.6052298066       20.4090503361  TIP3      979             0.0000000000
     27854      1180  TIP3      OH2           -23.9734440909      -13.3748058447       26.5695200502  TIP3      980             0.0000000000
     27855      1180  TIP3      H1            -24.1505668848      -14.3290651457       26.4908390911  TIP3      980             0.0000000000
     27856      1180  TIP3      H2            -24.3293825143      -13.1772779134       27.4544913009  TIP3      980             0.0000000000
     27857      1181  TIP3      OH2           -38.9025089366      -11.4435469169       30.7249683590  TIP3      981             0.0000000000
     27858      1181  TIP3      H1            -38.7479061633      -11.4457128162       29.7517931508  TIP3      981             0.0000000000
     27859      1181  TIP3      H2            -37.9792923815      -11.4812005006       31.0503856079  TIP3      981             0.0000000000
     27860      1182  TIP3      OH2           -23.1357398468      -11.4024501519       36.2284015573  TIP3      982             0.0000000000
     27861      1182  TIP3      H1            -22.5310558125      -12.1638975584       36.3715759227  TIP3      982             0.0000000000
     27862      1182  TIP3      H2            -22.5272208775      -10.6350551224       36.2438187498  TIP3      982             0.0000000000
     27863      1183  TIP3      OH2           -21.6346040169      -13.5349234208       36.8910663114  TIP3      983             0.0000000000
     27864      1183  TIP3      H1            -22.5171245575      -13.9346034154       36.7371573754  TIP3      983             0.0000000000
     27865      1183  TIP3      H2            -21.0641737319      -14.3182575905       36.8157553046  TIP3      983             0.0000000000
     27866      1184  TIP3      OH2           -24.3054801932      -15.8147129517       25.0830468449  TIP3      984             0.0000000000
     27867      1184  TIP3      H1            -24.0231862840      -16.7517055239       25.1282025802  TIP3      984             0.0000000000
     27868      1184  TIP3      H2            -23.5592784670      -15.4079851552       24.6298585126  TIP3      984             0.0000000000
     27869      1185  TIP3      OH2           -23.6929870863      -15.2529644209       30.4528250888  TIP3      985             0.0000000000
     27870      1185  TIP3      H1            -22.7309999265      -15.0254789038       30.4376214930  TIP3      985             0.0000000000
     27871      1185  TIP3      H2            -23.8757887235      -15.1139974232       31.3934146729  TIP3      985             0.0000000000
     27872      1186  TIP3      OH2           -23.6187292152      -14.5362377156       33.2395999040  TIP3      986             0.0000000000
     27873      1186  TIP3      H1            -24.5043811419      -14.2472328102       33.5479670335  TIP3      986             0.0000000000
     27874      1186  TIP3      H2            -23.1875928021      -13.6754152687       33.0110507463  TIP3      986             0.0000000000
     27875      1187  TIP3      OH2           -39.2350883005      -15.9451538142       36.5854076141  TIP3      987             0.0000000000
     27876      1187  TIP3      H1            -38.3503620176      -16.1604125332       36.9266792965  TIP3      987             0.0000000000
     27877      1187  TIP3      H2            -39.8047984708      -16.5872836592       37.0393472525  TIP3      987             0.0000000000
     27878      1188  TIP3      OH2           -21.3129462215      -20.4812611844       38.5876982539  TIP3      988             0.0000000000
     27879      1188  TIP3      H1            -21.0116386076      -21.1290999663       37.9308851729  TIP3      988             0.0000000000
     27880      1188  TIP3      H2            -21.2438712398      -19.6637581991       38.0570172714  TIP3      988             0.0000000000
     27881      1189  TIP3      OH2           -23.6537344454      -18.5264839643       25.0648248527  TIP3      989             0.0000000000
     27882      1189  TIP3      H1            -23.4284947414      -18.9676901753       25.9119725975  TIP3      989             0.0000000000
     27883      1189  TIP3      H2            -24.2623463600      -19.1565587981       24.6250282034  TIP3      989             0.0000000000
     27884      1190  TIP3      OH2           -38.1095459829      -17.7323136998       29.5027419516  TIP3      990             0.0000000000
     27885      1190  TIP3      H1            -37.7244854876      -18.5512255374       29.8769835550  TIP3      990             0.0000000000
     27886      1190  TIP3      H2            -37.6741864914      -17.0406544046       30.0197077017  TIP3      990             0.0000000000
     27887      1191  TIP3      OH2           -39.8477074056      -14.1833039337       30.5888671190  TIP3      991             0.0000000000
     27888      1191  TIP3      H1            -39.3140266263      -14.6583098898       29.9339717982  TIP3      991             0.0000000000
     27889      1191  TIP3      H2            -39.1966877941      -13.6182845340       31.0172362111  TIP3      991             0.0000000000
     27890      1192  TIP3      OH2           -21.8332567506      -18.3756083283       36.9321486120  TIP3      992             0.0000000000
     27891      1192  TIP3      H1            -22.7685149294      -18.0975036861       36.8769305535  TIP3      992             0.0000000000
     27892      1192  TIP3      H2            -21.7995046783      -18.9212309444       36.1304666390  TIP3      992             0.0000000000
     27893      1193  TIP3      OH2           -39.4896118378      -18.3784601491       24.7009699798  TIP3      993             0.0000000000
     27894      1193  TIP3      H1            -40.4247910524      -18.2636604249       24.5677731934  TIP3      993             0.0000000000
     27895      1193  TIP3      H2            -39.0358512035      -17.9572952087       23.9486477336  TIP3      993             0.0000000000
     27896      1194  TIP3      OH2           -24.8186753177       -3.3681485408       26.5280731184  TIP3      994             0.0000000000
     27897      1194  TIP3      H1            -24.0989441981       -3.8740707680       26.0883494657  TIP3      994             0.0000000000
     27898      1194  TIP3      H2            -24.3334426197       -3.0355144007       27.3070186550  TIP3      994             0.0000000000
     27899      1195  TIP3      OH2            40.3094014467      -19.6454987996       33.0263920586  TIP3      995             0.0000000000
     27900      1195  TIP3      H1             39.5987400163      -20.0474487868       33.5639295498  TIP3      995             0.0000000000
     27901      1195  TIP3      H2             39.7595503035      -19.1025624333       32.4561816587  TIP3      995             0.0000000000
     27902      1196  TIP3      OH2           -37.3788974854       -6.5744603387       37.2059817978  TIP3      996             0.0000000000
     27903      1196  TIP3      H1            -38.1976965525       -6.3886954572       36.7460020092  TIP3      996             0.0000000000
     27904      1196  TIP3      H2            -37.6257229464       -6.6836799075       38.1318533488  TIP3      996             0.0000000000
     27905      1197  TIP3      OH2           -34.4458304834       -5.5853769871       33.4669004870  TIP3      997             0.0000000000
     27906      1197  TIP3      H1            -34.7935107403       -4.7227409814       33.1880219264  TIP3      997             0.0000000000
     27907      1197  TIP3      H2            -33.5176453303       -5.4933409401       33.1554719694  TIP3      997             0.0000000000
     27908      1198  TIP3      OH2           -30.1166000658       -4.1597322089       36.3611281911  TIP3      998             0.0000000000
     27909      1198  TIP3      H1            -29.9801448209       -4.5150590140       37.2704317125  TIP3      998             0.0000000000
     27910      1198  TIP3      H2            -29.2136383421       -3.8585176934       36.1215299600  TIP3      998             0.0000000000
     27911      1199  TIP3      OH2           -27.8314351447       -2.8920841827       35.6745587751  TIP3      999             0.0000000000
     27912      1199  TIP3      H1            -27.0989417425       -3.4797402524       35.4375525270  TIP3      999             0.0000000000
     27913      1199  TIP3      H2            -27.4551419239       -2.4545810117       36.4683227929  TIP3      999             0.0000000000
     27914      1200  TIP3      OH2           -22.8162242132      -20.2746425706       34.7937836200  TIP3      1000            0.0000000000
     27915      1200  TIP3      H1            -23.6379252865      -19.9778478489       34.3660720368  TIP3      1000            0.0000000000
     27916      1200  TIP3      H2            -22.6361646128      -21.0938960068       34.2805001752  TIP3      1000            0.0000000000
     27917      1201  TIP3      OH2           -37.0227625836       -2.3312190800       33.4849240866  TIP3      1001            0.0000000000
     27918      1201  TIP3      H1            -37.7677693075       -1.8528154319       33.0687442613  TIP3      1001            0.0000000000
     27919      1201  TIP3      H2            -37.3483373520       -2.5601731463       34.3632067530  TIP3      1001            0.0000000000
     27920      1202  TIP3      OH2           -34.5344591930       -2.7673657932       32.5340913710  TIP3      1002            0.0000000000
     27921      1202  TIP3      H1            -35.4358284837       -2.6423066725       32.9134895646  TIP3      1002            0.0000000000
     27922      1202  TIP3      H2            -34.5895992892       -2.1843023015       31.7532243361  TIP3      1002            0.0000000000
     27923      1203  TIP3      OH2           -29.8399078721       -2.8560224320       31.7027822063  TIP3      1003            0.0000000000
     27924      1203  TIP3      H1            -30.2997443889       -2.3017821675       31.0532238233  TIP3      1003            0.0000000000
     27925      1203  TIP3      H2            -29.7058275570       -2.2230860818       32.4391266967  TIP3      1003            0.0000000000
     27926      1204  TIP3      OH2           -27.5522818147       -4.0553983024       32.7268029010  TIP3      1004            0.0000000000
     27927      1204  TIP3      H1            -28.4042555560       -3.7778341142       32.3541017339  TIP3      1004            0.0000000000
     27928      1204  TIP3      H2            -27.0813004329       -3.2107281688       32.6496741945  TIP3      1004            0.0000000000
     27929      1205  TIP3      OH2           -24.9412923423       -2.4873714598       32.9447171006  TIP3      1005            0.0000000000
     27930      1205  TIP3      H1            -25.0481511486       -1.5279151975       32.7337236877  TIP3      1005            0.0000000000
     27931      1205  TIP3      H2            -24.7933746003       -2.8787055368       32.0658095323  TIP3      1005            0.0000000000
     27932      1206  TIP3      OH2           -37.5197211600       -3.6464198916       30.4067859492  TIP3      1006            0.0000000000
     27933      1206  TIP3      H1            -37.6250400071       -4.1433624328       31.2377384405  TIP3      1006            0.0000000000
     27934      1206  TIP3      H2            -36.7603545735       -4.0927803622       29.9899814414  TIP3      1006            0.0000000000
     27935      1207  TIP3      OH2           -35.4922791563       -5.0025531463       29.0488119325  TIP3      1007            0.0000000000
     27936      1207  TIP3      H1            -35.6556794475       -5.9326280077       29.2926056823  TIP3      1007            0.0000000000
     27937      1207  TIP3      H2            -34.6379867470       -4.8309334827       29.5030636603  TIP3      1007            0.0000000000
     27938      1208  TIP3      OH2           -32.8813576728       -4.5089621559       29.9350849631  TIP3      1008            0.0000000000
     27939      1208  TIP3      H1            -32.7191254397       -5.4297052615       29.6649637784  TIP3      1008            0.0000000000
     27940      1208  TIP3      H2            -32.8259091603       -4.5602116664       30.8981883114  TIP3      1008            0.0000000000
     27941      1209  TIP3      OH2           -29.4294785061      -18.8617788690       29.0425584262  TIP3      1009            0.0000000000
     27942      1209  TIP3      H1            -30.0953567411      -19.5015696676       29.3528403530  TIP3      1009            0.0000000000
     27943      1209  TIP3      H2            -28.8617904375      -19.4001175442       28.4806951389  TIP3      1009            0.0000000000
     27944      1210  TIP3      OH2           -24.2802593598      -20.8338499469       29.1128001944  TIP3      1010            0.0000000000
     27945      1210  TIP3      H1            -23.6779101513      -20.2127465371       28.6219018412  TIP3      1010            0.0000000000
     27946      1210  TIP3      H2            -25.1618849930      -20.4447415917       28.9128154097  TIP3      1010            0.0000000000
     27947      1211  TIP3      OH2           -22.6104537582      -19.5780952108       27.4152200178  TIP3      1011            0.0000000000
     27948      1211  TIP3      H1            -21.9117474760      -20.1201788777       26.9803395972  TIP3      1011            0.0000000000
     27949      1211  TIP3      H2            -22.1269307701      -18.7279564491       27.5386006015  TIP3      1011            0.0000000000
     27950      1212  TIP3      OH2           -37.0336530163      -20.2337603351       26.9364620706  TIP3      1012            0.0000000000
     27951      1212  TIP3      H1            -37.8177541774      -20.4026585871       26.3702295224  TIP3      1012            0.0000000000
     27952      1212  TIP3      H2            -36.5806246758      -21.0943353642       26.8543359960  TIP3      1012            0.0000000000
     27953      1213  TIP3      OH2           -32.5652246309      -20.3020630131       26.6960047893  TIP3      1013            0.0000000000
     27954      1213  TIP3      H1            -31.6704808151      -19.9364562325       26.6239830140  TIP3      1013            0.0000000000
     27955      1213  TIP3      H2            -32.6087931051      -20.5193778346       27.6281566576  TIP3      1013            0.0000000000
     27956      1214  TIP3      OH2           -26.8641674901      -20.2880757780       28.3264249994  TIP3      1014            0.0000000000
     27957      1214  TIP3      H1            -26.9040216079      -20.1815565655       27.3684064921  TIP3      1014            0.0000000000
     27958      1214  TIP3      H2            -27.2563691050      -21.1876361770       28.4475407243  TIP3      1014            0.0000000000
     27959      1215  TIP3      OH2           -25.6136619589      -20.2258300702       24.0700388860  TIP3      1015            0.0000000000
     27960      1215  TIP3      H1            -26.3357788279      -19.6578460994       23.7984212121  TIP3      1015            0.0000000000
     27961      1215  TIP3      H2            -26.0407869159      -21.1045791132       24.2245602407  TIP3      1015            0.0000000000
     27962      1216  TIP3      OH2           -36.3910774036      -18.4749662886       21.1485376655  TIP3      1016            0.0000000000
     27963      1216  TIP3      H1            -35.8518364435      -19.0909738627       20.6292085695  TIP3      1016            0.0000000000
     27964      1216  TIP3      H2            -35.7448736844      -18.2127888937       21.8217272744  TIP3      1016            0.0000000000
     27965      1217  TIP3      OH2           -31.4416924484      -18.3046297160       23.6127442977  TIP3      1017            0.0000000000
     27966      1217  TIP3      H1            -31.1549449778      -18.8655640482       24.3377678085  TIP3      1017            0.0000000000
     27967      1217  TIP3      H2            -31.3389409979      -17.4162954779       24.0141587240  TIP3      1017            0.0000000000
     27968      1218  TIP3      OH2           -29.4866585951       -3.1502471785       22.0070278345  TIP3      1018            0.0000000000
     27969      1218  TIP3      H1            -28.5977070251       -2.9497539725       21.7333313645  TIP3      1018            0.0000000000
     27970      1218  TIP3      H2            -29.7550576417       -3.7522941161       21.2839672727  TIP3      1018            0.0000000000
     27971      1219  TIP3      OH2           -22.9403167474       -3.6441446463       24.6623601216  TIP3      1019            0.0000000000
     27972      1219  TIP3      H1            -22.9697532972       -4.5132193300       24.1803478477  TIP3      1019            0.0000000000
     27973      1219  TIP3      H2            -22.6927489235       -2.9949744248       24.0158460914  TIP3      1019            0.0000000000
     27974      1220  TIP3      OH2           -37.1689081599      -19.6685456854       36.3827816656  TIP3      1020            0.0000000000
     27975      1220  TIP3      H1            -37.5628343833      -20.4793211386       36.7573715326  TIP3      1020            0.0000000000
     27976      1220  TIP3      H2            -36.2536788735      -19.7303436640       36.7451959706  TIP3      1020            0.0000000000
     27977      1221  TIP3      OH2           -35.1794387544      -20.3018631663       38.0041921549  TIP3      1021            0.0000000000
     27978      1221  TIP3      H1            -34.2881370741      -20.6328620917       37.7884523486  TIP3      1021            0.0000000000
     27979      1221  TIP3      H2            -35.5464376946      -21.1088597911       38.4058943649  TIP3      1021            0.0000000000
     27980      1222  TIP3      OH2           -26.7664351705      -21.0157190832       38.1569687884  TIP3      1022            0.0000000000
     27981      1222  TIP3      H1            -26.6660909852      -21.4902158080       39.0058675443  TIP3      1022            0.0000000000
     27982      1222  TIP3      H2            -25.8517285644      -21.0387536960       37.8087393524  TIP3      1022            0.0000000000
     27983      1223  TIP3      OH2           -23.5502894495       -4.9653488694       36.7876238558  TIP3      1023            0.0000000000
     27984      1223  TIP3      H1            -24.3557400002       -5.1015089548       36.2424207661  TIP3      1023            0.0000000000
     27985      1223  TIP3      H2            -23.6677314738       -4.0191551912       37.0070282853  TIP3      1023            0.0000000000
     27986      1224  TIP3      OH2            -9.1136038894      -11.0929779068       26.7685571972  TIP3      1024            0.0000000000
     27987      1224  TIP3      H1             -9.1212965968      -10.1130442765       26.7359119152  TIP3      1024            0.0000000000
     27988      1224  TIP3      H2             -9.8194140198      -11.3142684892       26.1357947742  TIP3      1024            0.0000000000
     27989      1225  TIP3      OH2           -10.2986210322      -11.8290637114       30.2760323350  TIP3      1025            0.0000000000
     27990      1225  TIP3      H1            -10.2268974471      -12.4750048046       30.9947588234  TIP3      1025            0.0000000000
     27991      1225  TIP3      H2            -10.5540081578      -12.3451091080       29.5024268420  TIP3      1025            0.0000000000
     27992      1226  TIP3      OH2           -17.9310651685      -12.1337147044       31.8712500396  TIP3      1026            0.0000000000
     27993      1226  TIP3      H1            -17.8265951010      -12.8470789102       32.5307754107  TIP3      1026            0.0000000000
     27994      1226  TIP3      H2            -17.1561552717      -11.5864399700       32.0438493768  TIP3      1026            0.0000000000
     27995      1227  TIP3      OH2            -6.5682519704       -8.8847161440       28.5548039698  TIP3      1027            0.0000000000
     27996      1227  TIP3      H1             -6.9804484478       -9.6016383061       29.0465608486  TIP3      1027            0.0000000000
     27997      1227  TIP3      H2             -6.5410012288       -8.1771617746       29.2254306903  TIP3      1027            0.0000000000
     27998      1228  TIP3      OH2           -16.9810828540       -7.6241964659       30.3484190527  TIP3      1028            0.0000000000
     27999      1228  TIP3      H1            -17.2977661985       -8.5096831382       30.0367934250  TIP3      1028            0.0000000000
     28000      1228  TIP3      H2            -16.0355650550       -7.8604097218       30.3803496064  TIP3      1028            0.0000000000
     28001      1229  TIP3      OH2           -20.3077331188      -14.1530627642       25.7722686327  TIP3      1029            0.0000000000
     28002      1229  TIP3      H1            -20.7784739920      -13.2977429992       25.7720081515  TIP3      1029            0.0000000000
     28003      1229  TIP3      H2            -20.9021229948      -14.7127705911       25.2663776985  TIP3      1029            0.0000000000
     28004      1230  TIP3      OH2           -19.6501923355      -11.9437717266       27.9111030403  TIP3      1030            0.0000000000
     28005      1230  TIP3      H1            -19.3286761997      -12.7247177952       28.4053968685  TIP3      1030            0.0000000000
     28006      1230  TIP3      H2            -18.8910371941      -11.8141674018       27.3210632775  TIP3      1030            0.0000000000
     28007      1231  TIP3      OH2            -9.4413216162       -3.7239471597       28.7946058556  TIP3      1031            0.0000000000
     28008      1231  TIP3      H1             -8.7965000089       -4.4132229767       28.4980186334  TIP3      1031            0.0000000000
     28009      1231  TIP3      H2             -9.6610754853       -4.0663979272       29.6609058321  TIP3      1031            0.0000000000
     28010      1232  TIP3      OH2           -11.8887616918       -9.4677956805       30.7592875726  TIP3      1032            0.0000000000
     28011      1232  TIP3      H1            -11.5284814727      -10.0492191641       30.0746181857  TIP3      1032            0.0000000000
     28012      1232  TIP3      H2            -11.0694594945       -9.2615842706       31.2536759467  TIP3      1032            0.0000000000
     28013      1233  TIP3      OH2            -3.2844396148      -17.7692228983       31.4637133651  TIP3      1033            0.0000000000
     28014      1233  TIP3      H1             -3.1036112235      -17.1861917592       32.2324057439  TIP3      1033            0.0000000000
     28015      1233  TIP3      H2             -2.7099086602      -17.3527020130       30.8054920901  TIP3      1033            0.0000000000
     28016      1234  TIP3      OH2            -8.7552961830      -14.9689443015       31.0489031015  TIP3      1034            0.0000000000
     28017      1234  TIP3      H1             -8.5297464348      -15.9188989234       31.0704411190  TIP3      1034            0.0000000000
     28018      1234  TIP3      H2             -8.7844529382      -14.8347872843       30.0837611171  TIP3      1034            0.0000000000
     28019      1235  TIP3      OH2           -15.5787685052      -16.8710921398       28.2677128908  TIP3      1035            0.0000000000
     28020      1235  TIP3      H1            -15.5215341617      -16.0326069437       27.7626010150  TIP3      1035            0.0000000000
     28021      1235  TIP3      H2            -15.9997756433      -17.4405096572       27.5849660403  TIP3      1035            0.0000000000
     28022      1236  TIP3      OH2            -7.8544715975      -16.8062831689       26.6427169632  TIP3      1036            0.0000000000
     28023      1236  TIP3      H1             -7.2026947168      -17.1095012129       27.3188732011  TIP3      1036            0.0000000000
     28024      1236  TIP3      H2             -7.2954948485      -16.2216388474       26.1075763302  TIP3      1036            0.0000000000
     28025      1237  TIP3      OH2           -19.0852603949      -14.5759941807       29.0205426087  TIP3      1037            0.0000000000
     28026      1237  TIP3      H1            -18.2980075887      -14.9591726495       29.4461768674  TIP3      1037            0.0000000000
     28027      1237  TIP3      H2            -18.8426025522      -14.7366855302       28.0959152958  TIP3      1037            0.0000000000
     28028      1238  TIP3      OH2           -13.5827894502      -12.8888236381       27.8146706581  TIP3      1038            0.0000000000
     28029      1238  TIP3      H1            -12.9490999703      -13.3983209490       28.3116675567  TIP3      1038            0.0000000000
     28030      1238  TIP3      H2            -14.3646218537      -13.4711690363       27.6394080814  TIP3      1038            0.0000000000
     28031      1239  TIP3      OH2            -2.8425243624      -16.3714514189       33.7443429688  TIP3      1039            0.0000000000
     28032      1239  TIP3      H1             -3.4439320367      -15.6024479854       33.6309056630  TIP3      1039            0.0000000000
     28033      1239  TIP3      H2             -2.8072912084      -16.4467379424       34.7046702882  TIP3      1039            0.0000000000
     28034      1240  TIP3      OH2           -16.6643665526      -17.9441063008       32.3019805684  TIP3      1040            0.0000000000
     28035      1240  TIP3      H1            -16.9773268801      -17.3920500973       31.5509204567  TIP3      1040            0.0000000000
     28036      1240  TIP3      H2            -17.3501566342      -17.7418950594       32.9846400233  TIP3      1040            0.0000000000
     28037      1241  TIP3      OH2            -9.4322914775       -8.5068181971       25.8652152842  TIP3      1041            0.0000000000
     28038      1241  TIP3      H1             -9.6767695958       -8.7534159102       24.9677275754  TIP3      1041            0.0000000000
     28039      1241  TIP3      H2             -9.6916936476       -7.5620553687       25.9202072076  TIP3      1041            0.0000000000
     28040      1242  TIP3      OH2           -14.1494456625      -10.2861115195       32.5943555460  TIP3      1042            0.0000000000
     28041      1242  TIP3      H1            -14.8797180508       -9.6640474459       32.7851899532  TIP3      1042            0.0000000000
     28042      1242  TIP3      H2            -13.4602468896       -9.7011856879       32.2534140752  TIP3      1042            0.0000000000
     28043      1243  TIP3      OH2            -6.0465799341      -17.4468335236       28.6367952111  TIP3      1043            0.0000000000
     28044      1243  TIP3      H1             -6.2662622502      -18.2184681170       29.1665633970  TIP3      1043            0.0000000000
     28045      1243  TIP3      H2             -5.3734808243      -17.0143258649       29.1887889537  TIP3      1043            0.0000000000
     28046      1244  TIP3      OH2           -17.1020325674      -16.1429279256       30.3644045016  TIP3      1044            0.0000000000
     28047      1244  TIP3      H1            -16.5126645924      -15.4159813885       30.6483781488  TIP3      1044            0.0000000000
     28048      1244  TIP3      H2            -16.6127280025      -16.5144524266       29.5920639291  TIP3      1044            0.0000000000
     28049      1245  TIP3      OH2           -15.7297692933       -8.3257371025       33.3676257974  TIP3      1045            0.0000000000
     28050      1245  TIP3      H1            -15.7747712692       -7.4117621494       33.0338083531  TIP3      1045            0.0000000000
     28051      1245  TIP3      H2            -16.6087271752       -8.4063205645       33.8158358056  TIP3      1045            0.0000000000
     28052      1246  TIP3      OH2           -19.6811173718       -8.7017751105       24.1181597584  TIP3      1046            0.0000000000
     28053      1246  TIP3      H1            -19.9493608847       -8.3291655713       23.2793191345  TIP3      1046            0.0000000000
     28054      1246  TIP3      H2            -19.5900574911       -7.9089942035       24.6955870461  TIP3      1046            0.0000000000
     28055      1247  TIP3      OH2            -6.0376250578       -7.0466625114       30.9234406658  TIP3      1047            0.0000000000
     28056      1247  TIP3      H1             -7.0057303508       -6.9355159718       31.0421667680  TIP3      1047            0.0000000000
     28057      1247  TIP3      H2             -5.7684022460       -6.1315855883       30.7182769043  TIP3      1047            0.0000000000
     28058      1248  TIP3      OH2            -5.7155511585      -18.7658184087       32.3113379255  TIP3      1048            0.0000000000
     28059      1248  TIP3      H1             -6.4379803831      -18.1319553150       32.2172997835  TIP3      1048            0.0000000000
     28060      1248  TIP3      H2             -4.9995432003      -18.3468380535       31.7886293641  TIP3      1048            0.0000000000
     28061      1249  TIP3      OH2           -12.7499413392      -20.6444166498       29.7754707131  TIP3      1049            0.0000000000
     28062      1249  TIP3      H1            -12.8820369354      -21.6040916586       29.7006883546  TIP3      1049            0.0000000000
     28063      1249  TIP3      H2            -13.6286132026      -20.3392356954       30.0830787406  TIP3      1049            0.0000000000
     28064      1250  TIP3      OH2            -7.7715990738       -5.2709543130       27.5302789541  TIP3      1050            0.0000000000
     28065      1250  TIP3      H1             -7.3520476798       -5.9843631409       27.0048134783  TIP3      1050            0.0000000000
     28066      1250  TIP3      H2             -7.3509945782       -4.4804788871       27.1279388617  TIP3      1050            0.0000000000
     28067      1251  TIP3      OH2            -6.5504640533       -7.3382766216       26.0140999064  TIP3      1051            0.0000000000
     28068      1251  TIP3      H1             -6.8487373297       -8.0366256357       25.4038764473  TIP3      1051            0.0000000000
     28069      1251  TIP3      H2             -6.5302093235       -7.8259642648       26.8574372535  TIP3      1051            0.0000000000
     28070      1252  TIP3      OH2            -4.9515327289       -8.7381724430       34.5219571666  TIP3      1052            0.0000000000
     28071      1252  TIP3      H1             -4.8022928827       -9.3942807151       33.8052793588  TIP3      1052            0.0000000000
     28072      1252  TIP3      H2             -4.7419887145       -7.8978555493       34.0754722943  TIP3      1052            0.0000000000
     28073      1253  TIP3      OH2           -10.4333730693      -11.8098511484       24.3065740752  TIP3      1053            0.0000000000
     28074      1253  TIP3      H1            -11.1548903939      -11.3032616178       23.9123077026  TIP3      1053            0.0000000000
     28075      1253  TIP3      H2             -9.7391452048      -11.7750938505       23.6226317143  TIP3      1053            0.0000000000
     28076      1254  TIP3      OH2           -10.2379296734      -13.2051372652       21.2583530154  TIP3      1054            0.0000000000
     28077      1254  TIP3      H1             -9.6561684339      -13.3801763013       22.0116401874  TIP3      1054            0.0000000000
     28078      1254  TIP3      H2            -10.1512829009      -14.0275557715       20.7591794486  TIP3      1054            0.0000000000
     28079      1255  TIP3      OH2            -3.0595577574      -12.4282332309       32.5651079537  TIP3      1055            0.0000000000
     28080      1255  TIP3      H1             -3.7099890336      -11.6995858491       32.6033454003  TIP3      1055            0.0000000000
     28081      1255  TIP3      H2             -2.5644923061      -12.1955949857       31.7589914052  TIP3      1055            0.0000000000
     28082      1256  TIP3      OH2            -6.9971771755      -11.6479336595       25.2123856547  TIP3      1056            0.0000000000
     28083      1256  TIP3      H1             -7.7410324242      -11.3992265162       25.8115865364  TIP3      1056            0.0000000000
     28084      1256  TIP3      H2             -6.5223147692      -12.3054472244       25.7475289785  TIP3      1056            0.0000000000
     28085      1257  TIP3      OH2            -7.0745766008      -13.4765026406       34.3325193045  TIP3      1057            0.0000000000
     28086      1257  TIP3      H1             -7.0649344849      -12.6569627081       34.8551062051  TIP3      1057            0.0000000000
     28087      1257  TIP3      H2             -7.7008790102      -13.1830956886       33.6402917238  TIP3      1057            0.0000000000
     28088      1258  TIP3      OH2           -15.2277250547      -10.8510327048       26.9449618080  TIP3      1058            0.0000000000
     28089      1258  TIP3      H1            -15.7235549014      -11.3446534135       26.2510827956  TIP3      1058            0.0000000000
     28090      1258  TIP3      H2            -14.8483573546      -11.6137657337       27.4299852285  TIP3      1058            0.0000000000
     28091      1259  TIP3      OH2           -14.0653871968       -7.5595810557       29.7971261802  TIP3      1059            0.0000000000
     28092      1259  TIP3      H1            -14.0907423343       -8.0997474467       28.9919799820  TIP3      1059            0.0000000000
     28093      1259  TIP3      H2            -13.2960490446       -7.9440124377       30.2561295263  TIP3      1059            0.0000000000
     28094      1260  TIP3      OH2           -14.6790666471      -12.2737992380       31.0628015765  TIP3      1060            0.0000000000
     28095      1260  TIP3      H1            -14.7306359290      -11.9497488091       30.1393817695  TIP3      1060            0.0000000000
     28096      1260  TIP3      H2            -14.6488217925      -11.4162712887       31.5432226619  TIP3      1060            0.0000000000
     28097      1261  TIP3      OH2            -8.6475361701       -6.6616795937       31.4951828170  TIP3      1061            0.0000000000
     28098      1261  TIP3      H1             -8.9274605761       -6.0277236152       32.1621816530  TIP3      1061            0.0000000000
     28099      1261  TIP3      H2             -8.9041856238       -7.5168278945       31.9153947933  TIP3      1061            0.0000000000
     28100      1262  TIP3      OH2           -14.1139647553       -7.8012111402       35.4772658390  TIP3      1062            0.0000000000
     28101      1262  TIP3      H1            -14.5266321028       -7.0653972592       35.9720017372  TIP3      1062            0.0000000000
     28102      1262  TIP3      H2            -14.7833718724       -8.0056599925       34.7822257386  TIP3      1062            0.0000000000
     28103      1263  TIP3      OH2            -8.1316177093      -12.4454186490       22.8691955096  TIP3      1063            0.0000000000
     28104      1263  TIP3      H1             -7.5967004917      -12.2513471879       23.6738652257  TIP3      1063            0.0000000000
     28105      1263  TIP3      H2             -7.7026611735      -11.9121170399       22.1809962286  TIP3      1063            0.0000000000
     28106      1264  TIP3      OH2           -17.1650192518      -11.6444618332       34.6557939014  TIP3      1064            0.0000000000
     28107      1264  TIP3      H1            -17.1240751955      -10.9760281867       35.3655061312  TIP3      1064            0.0000000000
     28108      1264  TIP3      H2            -18.0981173084      -11.5560558414       34.4060977875  TIP3      1064            0.0000000000
     28109      1265  TIP3      OH2           -10.4157537767       -5.7075801383       26.3195251296  TIP3      1065            0.0000000000
     28110      1265  TIP3      H1             -9.9790106370       -5.4213514726       27.1356053408  TIP3      1065            0.0000000000
     28111      1265  TIP3      H2            -10.9816311881       -4.9569945487       26.1170768946  TIP3      1065            0.0000000000
     28112      1266  TIP3      OH2           -15.8599493870       -5.7711279658       36.2284986112  TIP3      1066            0.0000000000
     28113      1266  TIP3      H1            -15.9240221193       -5.8704734765       35.2631621328  TIP3      1066            0.0000000000
     28114      1266  TIP3      H2            -16.7888725268       -5.9065994336       36.4981455505  TIP3      1066            0.0000000000
     28115      1267  TIP3      OH2            -4.4207993843      -20.6892774754       22.8141567437  TIP3      1067            0.0000000000
     28116      1267  TIP3      H1             -5.3835835903      -20.6014543536       22.9780775183  TIP3      1067            0.0000000000
     28117      1267  TIP3      H2             -4.2401537552      -19.8541098937       22.3401977158  TIP3      1067            0.0000000000
     28118      1268  TIP3      OH2           -16.4194905061      -11.9656172555       24.7420144947  TIP3      1068            0.0000000000
     28119      1268  TIP3      H1            -16.7150839099      -11.1966338884       24.2327218860  TIP3      1068            0.0000000000
     28120      1268  TIP3      H2            -17.0781696277      -12.6344159753       24.5675559887  TIP3      1068            0.0000000000
     28121      1269  TIP3      OH2           -20.3363289504       -9.5270294868       33.6448471927  TIP3      1069            0.0000000000
     28122      1269  TIP3      H1            -20.7736294425       -9.6102503370       32.7770677389  TIP3      1069            0.0000000000
     28123      1269  TIP3      H2            -20.2486678812      -10.4773801712       33.8552033045  TIP3      1069            0.0000000000
     28124      1270  TIP3      OH2           -20.5755677429       -6.7667969082       30.3942504931  TIP3      1070            0.0000000000
     28125      1270  TIP3      H1            -19.6207100541       -6.9314792982       30.3977696426  TIP3      1070            0.0000000000
     28126      1270  TIP3      H2            -20.6377026101       -5.9830295594       30.9439007197  TIP3      1070            0.0000000000
     28127      1271  TIP3      OH2            -2.3295126613       -6.0877298774       36.1070487781  TIP3      1071            0.0000000000
     28128      1271  TIP3      H1             -2.4498820071       -7.0482018857       36.0762252012  TIP3      1071            0.0000000000
     28129      1271  TIP3      H2             -3.2049888520       -5.8414758176       36.4896870518  TIP3      1071            0.0000000000
     28130      1272  TIP3      OH2           -11.3752819624       -6.5510469255       34.9656095654  TIP3      1072            0.0000000000
     28131      1272  TIP3      H1            -11.3162020071       -5.7086103653       35.4743496144  TIP3      1072            0.0000000000
     28132      1272  TIP3      H2            -12.2480855229       -6.9092090777       35.2176017529  TIP3      1072            0.0000000000
     28133      1273  TIP3      OH2           -10.8993989855       -2.7964300633       24.7525071635  TIP3      1073            0.0000000000
     28134      1273  TIP3      H1            -11.0499845406       -2.8284669760       23.8081479037  TIP3      1073            0.0000000000
     28135      1273  TIP3      H2            -10.9133046200       -1.8388782668       24.9487617398  TIP3      1073            0.0000000000
     28136      1274  TIP3      OH2           -17.3115744282       -3.9060125801       26.6179645922  TIP3      1074            0.0000000000
     28137      1274  TIP3      H1            -17.1451399864       -4.3522850511       27.4710363366  TIP3      1074            0.0000000000
     28138      1274  TIP3      H2            -18.1286538628       -4.3311588723       26.3249652602  TIP3      1074            0.0000000000
     28139      1275  TIP3      OH2            -8.2019145824       -3.6118515096       24.5685761884  TIP3      1075            0.0000000000
     28140      1275  TIP3      H1             -9.1628687231       -3.6014588801       24.7193891391  TIP3      1075            0.0000000000
     28141      1275  TIP3      H2             -7.9238271086       -4.3981652851       25.0586016252  TIP3      1075            0.0000000000
     28142      1276  TIP3      OH2            -5.1885222214      -14.6229562016       36.5699656865  TIP3      1076            0.0000000000
     28143      1276  TIP3      H1             -5.6623362300      -14.1732781739       35.8560472066  TIP3      1076            0.0000000000
     28144      1276  TIP3      H2             -5.2010550953      -15.5434915785       36.2676072364  TIP3      1076            0.0000000000
     28145      1277  TIP3      OH2           -18.0432184427       -8.2159581365       34.5822291746  TIP3      1077            0.0000000000
     28146      1277  TIP3      H1            -17.8235993993       -8.5809555458       35.4644641810  TIP3      1077            0.0000000000
     28147      1277  TIP3      H2            -18.9128450101       -8.6119312137       34.3669759308  TIP3      1077            0.0000000000
     28148      1278  TIP3      OH2           -15.3658297938      -19.7494332795       30.5273527641  TIP3      1078            0.0000000000
     28149      1278  TIP3      H1            -16.2677695077      -19.8675998441       30.1580120295  TIP3      1078            0.0000000000
     28150      1278  TIP3      H2            -15.5072642048      -18.9284000615       31.0274223144  TIP3      1078            0.0000000000
     28151      1279  TIP3      OH2           -10.7220636649      -20.0756875395       33.8872335513  TIP3      1079            0.0000000000
     28152      1279  TIP3      H1            -10.3276926869      -20.4972810599       34.6745862081  TIP3      1079            0.0000000000
     28153      1279  TIP3      H2            -11.6932443702      -20.1904996895       34.0359337469  TIP3      1079            0.0000000000
     28154      1280  TIP3      OH2            -7.4326766767      -16.2247272258       34.7917120858  TIP3      1080            0.0000000000
     28155      1280  TIP3      H1             -7.9994050709      -16.4415739974       35.5712154856  TIP3      1080            0.0000000000
     28156      1280  TIP3      H2             -7.6190370355      -15.2980454438       34.5628410548  TIP3      1080            0.0000000000
     28157      1281  TIP3      OH2           -11.0415916361      -17.5307815019       21.2426876333  TIP3      1081            0.0000000000
     28158      1281  TIP3      H1            -11.3952429676      -17.5051517140       22.1484623713  TIP3      1081            0.0000000000
     28159      1281  TIP3      H2            -11.4513176780      -18.3493755453       20.9568189077  TIP3      1081            0.0000000000
     28160      1282  TIP3      OH2           -15.2541624750      -14.7442486098       31.7492835177  TIP3      1082            0.0000000000
     28161      1282  TIP3      H1            -15.9858720753      -14.8139047102       32.3983870858  TIP3      1082            0.0000000000
     28162      1282  TIP3      H2            -15.4074574929      -13.8166644496       31.4610857887  TIP3      1082            0.0000000000
     28163      1283  TIP3      OH2           -15.2790530402      -14.7524910335       26.6597021980  TIP3      1083            0.0000000000
     28164      1283  TIP3      H1            -16.2428132152      -14.8751502183       26.5128612002  TIP3      1083            0.0000000000
     28165      1283  TIP3      H2            -14.9376928197      -14.9347769038       25.7681733163  TIP3      1083            0.0000000000
     28166      1284  TIP3      OH2            -9.8015046406      -14.1479418208       25.4365837692  TIP3      1084            0.0000000000
     28167      1284  TIP3      H1            -10.2020846474      -13.3215940745       25.0838494363  TIP3      1084            0.0000000000
     28168      1284  TIP3      H2             -9.1245134878      -14.3223383451       24.7625680308  TIP3      1084            0.0000000000
     28169      1285  TIP3      OH2           -10.7295777485      -13.9380469927       36.8497619579  TIP3      1085            0.0000000000
     28170      1285  TIP3      H1            -11.2537172743      -14.7134919659       37.1621177315  TIP3      1085            0.0000000000
     28171      1285  TIP3      H2             -9.8916259702      -14.0571027793       37.3278006229  TIP3      1085            0.0000000000
     28172      1286  TIP3      OH2            -8.7953546912      -14.6587721487       28.2612492561  TIP3      1086            0.0000000000
     28173      1286  TIP3      H1             -9.0087937504      -14.0955409967       27.4976171536  TIP3      1086            0.0000000000
     28174      1286  TIP3      H2             -8.6390781903      -15.5007093725       27.7864932897  TIP3      1086            0.0000000000
     28175      1287  TIP3      OH2           -17.6233716375      -14.5307421404       33.4592987826  TIP3      1087            0.0000000000
     28176      1287  TIP3      H1            -17.5627782977      -14.1060082541       34.3328455644  TIP3      1087            0.0000000000
     28177      1287  TIP3      H2            -18.0930461390      -15.3553019381       33.6674534587  TIP3      1087            0.0000000000
     28178      1288  TIP3      OH2           -20.9836051894      -17.4208376337       27.4360545716  TIP3      1088            0.0000000000
     28179      1288  TIP3      H1            -20.3017085200      -17.4520418759       28.1374554006  TIP3      1088            0.0000000000
     28180      1288  TIP3      H2            -20.5279075729      -17.7902703379       26.6587111529  TIP3      1088            0.0000000000
     28181      1289  TIP3      OH2           -19.7220610666      -16.6840006636       22.8000227433  TIP3      1089            0.0000000000
     28182      1289  TIP3      H1            -19.1895195556      -16.0678448029       22.2628574881  TIP3      1089            0.0000000000
     28183      1289  TIP3      H2            -20.4140893098      -16.0789004788       23.1473583418  TIP3      1089            0.0000000000
     28184      1290  TIP3      OH2            -9.5836420881      -13.0748597999       32.7928974903  TIP3      1090            0.0000000000
     28185      1290  TIP3      H1             -9.1772159374      -13.7633630016       32.2301115209  TIP3      1090            0.0000000000
     28186      1290  TIP3      H2            -10.0055500651      -13.5967908608       33.4978576676  TIP3      1090            0.0000000000
     28187      1291  TIP3      OH2           -12.7443865884      -17.0492579517       27.6720467908  TIP3      1091            0.0000000000
     28188      1291  TIP3      H1            -13.6883748404      -17.1135907992       27.9372061586  TIP3      1091            0.0000000000
     28189      1291  TIP3      H2            -12.2573378143      -17.3040447094       28.4706047253  TIP3      1091            0.0000000000
     28190      1292  TIP3      OH2           -17.9361300497      -15.5530860457       26.5319110022  TIP3      1092            0.0000000000
     28191      1292  TIP3      H1            -18.8176710516      -15.3907528085       26.1443743072  TIP3      1092            0.0000000000
     28192      1292  TIP3      H2            -17.6695347550      -16.3892467410       26.1141926485  TIP3      1092            0.0000000000
     28193      1293  TIP3      OH2           -14.3102350380      -15.4678337169       24.1464104422  TIP3      1093            0.0000000000
     28194      1293  TIP3      H1            -13.3472472850      -15.4119181946       24.2938324211  TIP3      1093            0.0000000000
     28195      1293  TIP3      H2            -14.4910167765      -14.7923168776       23.4813069555  TIP3      1093            0.0000000000
     28196      1294  TIP3      OH2            -8.3444356460      -17.8602596253       30.8880077149  TIP3      1094            0.0000000000
     28197      1294  TIP3      H1             -9.0318623801      -17.8145035993       31.5857163868  TIP3      1094            0.0000000000
     28198      1294  TIP3      H2             -8.8520907628      -18.1171537985       30.1053200025  TIP3      1094            0.0000000000
     28199      1295  TIP3      OH2            -5.1498366468       -2.2119800530       37.2169614857  TIP3      1095            0.0000000000
     28200      1295  TIP3      H1             -4.8771186021       -1.8349329352       36.3615708506  TIP3      1095            0.0000000000
     28201      1295  TIP3      H2             -4.4222889434       -1.8982059785       37.7755360898  TIP3      1095            0.0000000000
     28202      1296  TIP3      OH2           -17.4662207394       -9.7497205450       36.7902155076  TIP3      1096            0.0000000000
     28203      1296  TIP3      H1            -16.7458279901       -9.5029561065       37.3939412809  TIP3      1096            0.0000000000
     28204      1296  TIP3      H2            -18.2392685110       -9.6706475421       37.3909067170  TIP3      1096            0.0000000000
     28205      1297  TIP3      OH2           -11.5645173621      -14.3868074690       29.5348274607  TIP3      1097            0.0000000000
     28206      1297  TIP3      H1            -10.8674203283      -14.8370943103       29.0187928917  TIP3      1097            0.0000000000
     28207      1297  TIP3      H2            -11.5464177273      -14.9090015206       30.3505228839  TIP3      1097            0.0000000000
     28208      1298  TIP3      OH2           -16.4699613095      -18.1746639401       25.9632800420  TIP3      1098            0.0000000000
     28209      1298  TIP3      H1            -16.7743626239      -19.0989330476       25.9768590014  TIP3      1098            0.0000000000
     28210      1298  TIP3      H2            -15.6720688287      -18.2690948149       25.4239731807  TIP3      1098            0.0000000000
     28211      1299  TIP3      OH2           -12.8107368789      -15.9656336886       31.9279832437  TIP3      1099            0.0000000000
     28212      1299  TIP3      H1            -13.6629381601      -15.5121981987       32.1001009254  TIP3      1099            0.0000000000
     28213      1299  TIP3      H2            -12.2623634295      -15.6855708299       32.6930688940  TIP3      1099            0.0000000000
     28214      1300  TIP3      OH2           -12.3279000321       -9.7223448994       23.6007034110  TIP3      1100            0.0000000000
     28215      1300  TIP3      H1            -13.0313213184      -10.3500980483       23.3936878371  TIP3      1100            0.0000000000
     28216      1300  TIP3      H2            -12.4240842766       -9.6777600874       24.5856516654  TIP3      1100            0.0000000000
     28217      1301  TIP3      OH2            -5.0498953752      -10.5855386165       32.4581848946  TIP3      1101            0.0000000000
     28218      1301  TIP3      H1             -4.4888737050      -10.1016765501       31.8248496881  TIP3      1101            0.0000000000
     28219      1301  TIP3      H2             -5.9108333464      -10.5415291866       31.9955807079  TIP3      1101            0.0000000000
     28220      1302  TIP3      OH2           -10.7466677789       -9.5175979532       34.9018821971  TIP3      1102            0.0000000000
     28221      1302  TIP3      H1            -11.0935622514       -9.9474628244       35.6902904370  TIP3      1102            0.0000000000
     28222      1302  TIP3      H2            -11.0045721668       -8.5965216427       35.0083601405  TIP3      1102            0.0000000000
     28223      1303  TIP3      OH2            -7.6537450037      -15.1042803321       23.4953572909  TIP3      1103            0.0000000000
     28224      1303  TIP3      H1             -6.7636400247      -15.1970909322       23.8725197059  TIP3      1103            0.0000000000
     28225      1303  TIP3      H2             -7.6025267251      -14.2892337037       22.9645624207  TIP3      1103            0.0000000000
     28226      1304  TIP3      OH2           -17.2275089677      -10.1060603776       29.5836942956  TIP3      1104            0.0000000000
     28227      1304  TIP3      H1            -16.6378531051      -10.3144336998       28.8367157795  TIP3      1104            0.0000000000
     28228      1304  TIP3      H2            -17.2800870790      -11.0174915351       29.9263805207  TIP3      1104            0.0000000000
     28229      1305  TIP3      OH2           -10.2087675996       -8.3097735037       22.5860742227  TIP3      1105            0.0000000000
     28230      1305  TIP3      H1            -10.4160984563       -7.4720049999       23.0429643984  TIP3      1105            0.0000000000
     28231      1305  TIP3      H2            -10.8445840003       -8.9402022316       22.9574898943  TIP3      1105            0.0000000000
     28232      1306  TIP3      OH2           -20.1379525934      -11.9924219743       34.7152258950  TIP3      1106            0.0000000000
     28233      1306  TIP3      H1            -19.9696941756      -12.4361023797       35.5695326524  TIP3      1106            0.0000000000
     28234      1306  TIP3      H2            -20.7604333603      -12.6012117199       34.2773938822  TIP3      1106            0.0000000000
     28235      1307  TIP3      OH2           -13.1262128659      -12.4298912435       36.8880961832  TIP3      1107            0.0000000000
     28236      1307  TIP3      H1            -13.4457634594      -12.7425686564       36.0301522944  TIP3      1107            0.0000000000
     28237      1307  TIP3      H2            -12.2041608226      -12.7567399887       36.8908222231  TIP3      1107            0.0000000000
     28238      1308  TIP3      OH2            -8.4390424274       -7.0948366394       34.8496760184  TIP3      1108            0.0000000000
     28239      1308  TIP3      H1             -9.3643515844       -6.9172425435       34.6154179409  TIP3      1108            0.0000000000
     28240      1308  TIP3      H2             -8.4731678568       -6.8010236438       35.7800941852  TIP3      1108            0.0000000000
     28241      1309  TIP3      OH2            -2.7701634204      -14.9212452356       23.2372478636  TIP3      1109            0.0000000000
     28242      1309  TIP3      H1             -3.3381518471      -15.2630344644       22.5309123059  TIP3      1109            0.0000000000
     28243      1309  TIP3      H2             -2.7230323376      -13.9882914815       22.9809964334  TIP3      1109            0.0000000000
     28244      1310  TIP3      OH2            -2.7852554159       -9.0531205323       36.0396025442  TIP3      1110            0.0000000000
     28245      1310  TIP3      H1             -3.6783771078       -8.8326148197       35.6760587421  TIP3      1110            0.0000000000
     28246      1310  TIP3      H2             -2.2401156594       -9.1058940472       35.2272809447  TIP3      1110            0.0000000000
     28247      1311  TIP3      OH2            -4.4704265866       -6.0723276257       23.6707793474  TIP3      1111            0.0000000000
     28248      1311  TIP3      H1             -4.8772954531       -6.8964445638       23.9721741268  TIP3      1111            0.0000000000
     28249      1311  TIP3      H2             -4.2323273970       -6.2726609263       22.7636095471  TIP3      1111            0.0000000000
     28250      1312  TIP3      OH2            -7.2754116040      -11.2730895040       30.7404575706  TIP3      1112            0.0000000000
     28251      1312  TIP3      H1             -8.2159407419      -11.4803186698       30.6317065678  TIP3      1112            0.0000000000
     28252      1312  TIP3      H2             -6.8426084709      -12.0292263119       30.3016869747  TIP3      1112            0.0000000000
     28253      1313  TIP3      OH2           -14.7513196488       -6.9459822754       26.7627679094  TIP3      1113            0.0000000000
     28254      1313  TIP3      H1            -14.2710998876       -6.1060180477       26.6397331365  TIP3      1113            0.0000000000
     28255      1313  TIP3      H2            -15.6440933451       -6.6719553106       26.5175998471  TIP3      1113            0.0000000000
     28256      1314  TIP3      OH2           -13.2874817385       -9.2305967148       26.3363918235  TIP3      1114            0.0000000000
     28257      1314  TIP3      H1            -13.6533881766       -8.3373554334       26.4736658913  TIP3      1114            0.0000000000
     28258      1314  TIP3      H2            -14.0157678971       -9.7680910446       26.7452768535  TIP3      1114            0.0000000000
     28259      1315  TIP3      OH2           -12.8911955708       -5.0901570889       32.7723181611  TIP3      1115            0.0000000000
     28260      1315  TIP3      H1            -12.4363105797       -4.2854969296       32.4800359835  TIP3      1115            0.0000000000
     28261      1315  TIP3      H2            -12.2737876512       -5.4319325090       33.4430900107  TIP3      1115            0.0000000000
     28262      1316  TIP3      OH2           -14.6558190539       -4.3273381110       25.9614684253  TIP3      1116            0.0000000000
     28263      1316  TIP3      H1            -15.6139829651       -4.1302863813       25.9647967080  TIP3      1116            0.0000000000
     28264      1316  TIP3      H2            -14.3171486769       -3.4422737033       26.1819297844  TIP3      1116            0.0000000000
     28265      1317  TIP3      OH2            -9.3794979767       -9.0987551855       32.3826630902  TIP3      1117            0.0000000000
     28266      1317  TIP3      H1             -9.6930913300       -9.2860257500       33.2920785559  TIP3      1117            0.0000000000
     28267      1317  TIP3      H2             -8.7255237322       -9.7968145647       32.2225670472  TIP3      1117            0.0000000000
     28268      1318  TIP3      OH2            -6.5465590889       -4.5112594332       34.8726333178  TIP3      1118            0.0000000000
     28269      1318  TIP3      H1             -7.2409744196       -5.0038891149       34.3956570333  TIP3      1118            0.0000000000
     28270      1318  TIP3      H2             -6.3660218651       -3.8102226124       34.2116268763  TIP3      1118            0.0000000000
     28271      1319  TIP3      OH2           -18.4888638931      -17.2585752500       34.2607370855  TIP3      1119            0.0000000000
     28272      1319  TIP3      H1            -19.3952427687      -16.9053035044       34.2452900499  TIP3      1119            0.0000000000
     28273      1319  TIP3      H2            -18.6001417426      -18.1016614762       34.7284703101  TIP3      1119            0.0000000000
     28274      1320  TIP3      OH2            -6.2697921432       -9.3998220754       23.7762379607  TIP3      1120            0.0000000000
     28275      1320  TIP3      H1             -6.4963034539      -10.2100267623       24.2610816132  TIP3      1120            0.0000000000
     28276      1320  TIP3      H2             -5.3052628717       -9.3654254181       23.8777750364  TIP3      1120            0.0000000000
     28277      1321  TIP3      OH2           -18.8785218306       -5.4540853075       32.6871719580  TIP3      1121            0.0000000000
     28278      1321  TIP3      H1            -18.5765036595       -6.3756873714       32.6961823622  TIP3      1121            0.0000000000
     28279      1321  TIP3      H2            -18.6172240863       -5.1709801995       33.5701742640  TIP3      1121            0.0000000000
     28280      1322  TIP3      OH2           -17.6644956203      -10.1510802535       22.8433120632  TIP3      1122            0.0000000000
     28281      1322  TIP3      H1            -18.2780179899       -9.7769001164       23.5051776076  TIP3      1122            0.0000000000
     28282      1322  TIP3      H2            -17.0622303392       -9.4268462508       22.6737451562  TIP3      1122            0.0000000000
     28283      1323  TIP3      OH2            -9.7575938849      -17.4836970165       33.2325000915  TIP3      1123            0.0000000000
     28284      1323  TIP3      H1             -9.0409395883      -17.4233169414       33.8728800320  TIP3      1123            0.0000000000
     28285      1323  TIP3      H2            -10.1395279216      -18.3605436210       33.4352952097  TIP3      1123            0.0000000000
     28286      1324  TIP3      OH2            -8.9801419186      -17.9168530577       24.2790884150  TIP3      1124            0.0000000000
     28287      1324  TIP3      H1             -8.7964050176      -17.3771183999       23.5005979354  TIP3      1124            0.0000000000
     28288      1324  TIP3      H2             -8.4320270180      -17.4805295675       24.9444751366  TIP3      1124            0.0000000000
     28289      1325  TIP3      OH2           -11.3435750989       -5.7665364717       23.0692866339  TIP3      1125            0.0000000000
     28290      1325  TIP3      H1            -12.1089020683       -5.1868054540       23.2101877712  TIP3      1125            0.0000000000
     28291      1325  TIP3      H2            -10.7664887398       -5.2461581216       22.4923710900  TIP3      1125            0.0000000000
     28292      1326  TIP3      OH2           -11.8121878341      -16.1466977074       25.1253477348  TIP3      1126            0.0000000000
     28293      1326  TIP3      H1            -11.0050868647      -15.5913275890       25.1492022555  TIP3      1126            0.0000000000
     28294      1326  TIP3      H2            -12.0421408392      -16.2958783806       26.0584451887  TIP3      1126            0.0000000000
     28295      1327  TIP3      OH2           -11.2338567630      -15.1283474157       34.3021213698  TIP3      1127            0.0000000000
     28296      1327  TIP3      H1            -11.1705232744      -14.5763853552       35.1097407700  TIP3      1127            0.0000000000
     28297      1327  TIP3      H2            -10.5732429475      -15.8275439903       34.4178361886  TIP3      1127            0.0000000000
     28298      1328  TIP3      OH2           -10.9120641504      -19.0804339623       26.0569676957  TIP3      1128            0.0000000000
     28299      1328  TIP3      H1            -11.2579685872      -18.4334089454       26.6932155108  TIP3      1128            0.0000000000
     28300      1328  TIP3      H2            -10.2392274597      -18.5421816658       25.5754743354  TIP3      1128            0.0000000000
     28301      1329  TIP3      OH2           -15.2851150723      -18.0212568188       22.8146651548  TIP3      1129            0.0000000000
     28302      1329  TIP3      H1            -15.3164022104      -17.0926122561       23.0847979085  TIP3      1129            0.0000000000
     28303      1329  TIP3      H2            -14.3508742976      -18.2305702813       22.9518823866  TIP3      1129            0.0000000000
     28304      1330  TIP3      OH2            -5.0526167823      -17.2684619190       35.1710318202  TIP3      1130            0.0000000000
     28305      1330  TIP3      H1             -5.9797059345      -16.9524261566       35.0422414443  TIP3      1130            0.0000000000
     28306      1330  TIP3      H2             -4.7534157103      -17.2822084800       34.2465967293  TIP3      1130            0.0000000000
     28307      1331  TIP3      OH2            -6.4379454187      -13.4852186885       29.1731343980  TIP3      1131            0.0000000000
     28308      1331  TIP3      H1             -7.2632198226      -13.9297780543       28.9056507021  TIP3      1131            0.0000000000
     28309      1331  TIP3      H2             -5.9629545309      -14.1667136143       29.7008951137  TIP3      1131            0.0000000000
     28310      1332  TIP3      OH2           -18.7002126212      -14.9050377241       20.9605270053  TIP3      1132            0.0000000000
     28311      1332  TIP3      H1            -18.6930572031      -13.9557536925       21.0737807075  TIP3      1132            0.0000000000
     28312      1332  TIP3      H2            -19.5492279355      -15.0943923054       20.5564992643  TIP3      1132            0.0000000000
     28313      1333  TIP3      OH2            -5.3764651329       -4.2136477867       30.8511824179  TIP3      1133            0.0000000000
     28314      1333  TIP3      H1             -5.4621231889       -3.5378518319       30.1524337403  TIP3      1133            0.0000000000
     28315      1333  TIP3      H2             -4.4107305940       -4.1675641911       31.0224131217  TIP3      1133            0.0000000000
     28316      1334  TIP3      OH2           -17.8802202756      -20.1048707202       29.6589812587  TIP3      1134            0.0000000000
     28317      1334  TIP3      H1            -18.0795432529      -20.0817812718       28.6934352166  TIP3      1134            0.0000000000
     28318      1334  TIP3      H2            -18.3027638909      -20.9523754490       29.9046682447  TIP3      1134            0.0000000000
     28319      1335  TIP3      OH2           -18.9387149142       -6.2111791201       25.7674885413  TIP3      1135            0.0000000000
     28320      1335  TIP3      H1            -19.7688233355       -5.7165232001       25.7520660754  TIP3      1135            0.0000000000
     28321      1335  TIP3      H2            -18.4437441127       -5.7047340908       25.1052960230  TIP3      1135            0.0000000000
     28322      1336  TIP3      OH2           -19.7274593616       -3.5244734832       37.0833072271  TIP3      1136            0.0000000000
     28323      1336  TIP3      H1            -19.1184110820       -3.7262874862       37.8229574999  TIP3      1136            0.0000000000
     28324      1336  TIP3      H2            -20.1221517417       -4.3964194384       36.9033896642  TIP3      1136            0.0000000000
     28325      1337  TIP3      OH2           -15.0421326028       -4.6056067923       38.6945916866  TIP3      1137            0.0000000000
     28326      1337  TIP3      H1            -14.2850014249       -5.1071501714       39.0259975443  TIP3      1137            0.0000000000
     28327      1337  TIP3      H2            -15.0674560578       -4.8866668798       37.7572947185  TIP3      1137            0.0000000000
     28328      1338  TIP3      OH2            -8.5388446462       -6.2238527726       37.4434237325  TIP3      1138            0.0000000000
     28329      1338  TIP3      H1             -8.8537869531       -7.1111484081       37.7182913894  TIP3      1138            0.0000000000
     28330      1338  TIP3      H2             -7.7694688652       -6.1050553402       38.0351545761  TIP3      1138            0.0000000000
     28331      1339  TIP3      OH2           -19.8136733196       -9.7553758051       38.0819640234  TIP3      1139            0.0000000000
     28332      1339  TIP3      H1            -19.6468965154      -10.6668084312       37.7804504827  TIP3      1139            0.0000000000
     28333      1339  TIP3      H2            -20.5523186906       -9.4971120397       37.5062094797  TIP3      1139            0.0000000000
     28334      1340  TIP3      OH2           -13.0952355702       -9.7674519587       37.4661931706  TIP3      1140            0.0000000000
     28335      1340  TIP3      H1            -13.4302448620       -9.4525097680       36.6031047906  TIP3      1140            0.0000000000
     28336      1340  TIP3      H2            -13.0224434811      -10.7437510532       37.3574467073  TIP3      1140            0.0000000000
     28337      1341  TIP3      OH2            -7.3993729416       -9.9074805624       34.8581887232  TIP3      1141            0.0000000000
     28338      1341  TIP3      H1             -6.6106316437       -9.3255867502       34.7978934138  TIP3      1141            0.0000000000
     28339      1341  TIP3      H2             -8.0978579829       -9.2383152494       34.8944180322  TIP3      1141            0.0000000000
     28340      1342  TIP3      OH2           -18.8895400678      -12.5294565134       37.4625979132  TIP3      1142            0.0000000000
     28341      1342  TIP3      H1            -18.4720180089      -13.3922001690       37.3710966594  TIP3      1142            0.0000000000
     28342      1342  TIP3      H2            -19.1228040930      -12.5238708143       38.4048215871  TIP3      1142            0.0000000000
     28343      1343  TIP3      OH2           -15.0065673514      -13.5972803293       34.7978657697  TIP3      1143            0.0000000000
     28344      1343  TIP3      H1            -15.5852148392      -12.8713255263       35.0898881401  TIP3      1143            0.0000000000
     28345      1343  TIP3      H2            -14.5852400891      -13.2015735020       34.0218507067  TIP3      1143            0.0000000000
     28346      1344  TIP3      OH2            -9.9168137888      -11.0150822692       38.1529657165  TIP3      1144            0.0000000000
     28347      1344  TIP3      H1             -8.9600295848      -11.0279011108       38.0296113478  TIP3      1144            0.0000000000
     28348      1344  TIP3      H2            -10.0889384643      -11.7821675883       38.7223644058  TIP3      1144            0.0000000000
     28349      1345  TIP3      OH2           -14.5823124046      -16.2133218362       35.8787432984  TIP3      1145            0.0000000000
     28350      1345  TIP3      H1            -14.4696075381      -16.9143300285       35.2099703247  TIP3      1145            0.0000000000
     28351      1345  TIP3      H2            -14.6343551107      -15.3970232209       35.3405554539  TIP3      1145            0.0000000000
     28352      1346  TIP3      OH2           -14.1802471131      -17.7966531959       33.4228875813  TIP3      1146            0.0000000000
     28353      1346  TIP3      H1            -13.6676737979      -17.3665931670       32.7071877709  TIP3      1146            0.0000000000
     28354      1346  TIP3      H2            -15.0775011139      -17.8976398511       33.0262113745  TIP3      1146            0.0000000000
     28355      1347  TIP3      OH2           -12.6672736715      -12.3603400394       33.6375145433  TIP3      1147            0.0000000000
     28356      1347  TIP3      H1            -11.8689420359      -12.4866731096       33.1163027082  TIP3      1147            0.0000000000
     28357      1347  TIP3      H2            -13.0077507422      -11.4984935156       33.3390840476  TIP3      1147            0.0000000000
     28358      1348  TIP3      OH2            -8.2491579354      -14.5849436258       38.6282318603  TIP3      1148            0.0000000000
     28359      1348  TIP3      H1             -8.0127574037      -15.5193835270       38.5391526365  TIP3      1148            0.0000000000
     28360      1348  TIP3      H2             -7.3854907068      -14.1406487447       38.6639654636  TIP3      1148            0.0000000000
     28361      1349  TIP3      OH2            -6.9046200124      -11.7928581032       36.7937525502  TIP3      1149            0.0000000000
     28362      1349  TIP3      H1             -7.1587159700      -11.0688216816       36.1805165375  TIP3      1149            0.0000000000
     28363      1349  TIP3      H2             -5.9503784291      -11.8214606195       36.6096160284  TIP3      1149            0.0000000000
     28364      1350  TIP3      OH2           -16.1236279415      -14.9575512421       37.7942290015  TIP3      1150            0.0000000000
     28365      1350  TIP3      H1            -16.8940097028      -15.5336641231       37.6247341661  TIP3      1150            0.0000000000
     28366      1350  TIP3      H2            -15.4710700363      -15.3259691882       37.1715214099  TIP3      1150            0.0000000000
     28367      1351  TIP3      OH2           -13.4049079176      -20.3898651711       33.8327472222  TIP3      1151            0.0000000000
     28368      1351  TIP3      H1            -13.5764236514      -19.4271186767       33.7197621283  TIP3      1151            0.0000000000
     28369      1351  TIP3      H2            -14.1417084852      -20.7577645458       33.3143158528  TIP3      1151            0.0000000000
     28370      1352  TIP3      OH2           -12.1231397742      -16.0597694611       37.4429381079  TIP3      1152            0.0000000000
     28371      1352  TIP3      H1            -12.4381909213      -16.2917970098       38.3382932597  TIP3      1152            0.0000000000
     28372      1352  TIP3      H2            -12.9050569789      -16.2626792817       36.9020342498  TIP3      1152            0.0000000000
     28373      1353  TIP3      OH2            -9.4016810429      -16.9149197993       36.5346280940  TIP3      1153            0.0000000000
     28374      1353  TIP3      H1            -10.3665684446      -16.8609555076       36.6433468745  TIP3      1153            0.0000000000
     28375      1353  TIP3      H2             -9.1381250156      -17.5557482692       37.2231303511  TIP3      1153            0.0000000000
     28376      1354  TIP3      OH2            -7.8186243215      -18.2975190425       38.4331453548  TIP3      1154            0.0000000000
     28377      1354  TIP3      H1             -7.8667159954      -19.2745359826       38.4631522937  TIP3      1154            0.0000000000
     28378      1354  TIP3      H2             -8.0679016459      -18.0040069163       39.3315572365  TIP3      1154            0.0000000000
     28379      1355  TIP3      OH2           -18.0490328397      -17.0189638566       37.5496181919  TIP3      1155            0.0000000000
     28380      1355  TIP3      H1            -17.7971154043      -17.7543251506       36.9613137402  TIP3      1155            0.0000000000
     28381      1355  TIP3      H2            -18.1393306208      -17.4670408021       38.4131864156  TIP3      1155            0.0000000000
     28382      1356  TIP3      OH2           -13.1806456584      -20.9964653647       36.5179191694  TIP3      1156            0.0000000000
     28383      1356  TIP3      H1            -12.4989435649      -21.6971685534       36.4989993977  TIP3      1156            0.0000000000
     28384      1356  TIP3      H2            -13.2953363037      -20.8565575361       35.5568241307  TIP3      1156            0.0000000000
     28385      1357  TIP3      OH2           -12.8181104954      -19.3835497550       38.6351015217  TIP3      1157            0.0000000000
     28386      1357  TIP3      H1            -12.9889184985      -19.8889782794       37.8007940930  TIP3      1157            0.0000000000
     28387      1357  TIP3      H2            -13.4071020475      -18.6109981605       38.5291594638  TIP3      1157            0.0000000000
     28388      1358  TIP3      OH2           -13.2032094335       -2.6003744662       21.6800941940  TIP3      1158            0.0000000000
     28389      1358  TIP3      H1            -12.3366412966       -2.2741698760       21.8679645309  TIP3      1158            0.0000000000
     28390      1358  TIP3      H2            -13.5903549374       -1.8911160434       21.1505336973  TIP3      1158            0.0000000000
     28391      1359  TIP3      OH2           -21.1257180603       -2.4970556297       26.2795837444  TIP3      1159            0.0000000000
     28392      1359  TIP3      H1            -21.7316830013       -3.0489695759       25.7649397912  TIP3      1159            0.0000000000
     28393      1359  TIP3      H2            -20.7066438082       -3.1567545166       26.8715883163  TIP3      1159            0.0000000000
     28394      1360  TIP3      OH2           -20.2512196611       -4.3540637723       28.1309380083  TIP3      1160            0.0000000000
     28395      1360  TIP3      H1            -20.5122587464       -5.2743595828       28.3054159865  TIP3      1160            0.0000000000
     28396      1360  TIP3      H2            -19.8940455110       -4.0833411469       28.9955209947  TIP3      1160            0.0000000000
     28397      1361  TIP3      OH2            -2.6538285351       -3.5767466630       31.0451777416  TIP3      1161            0.0000000000
     28398      1361  TIP3      H1             -2.6232496547       -3.4169342588       32.0044202323  TIP3      1161            0.0000000000
     28399      1361  TIP3      H2             -1.9498636927       -2.9940928479       30.7424818395  TIP3      1161            0.0000000000
     28400      1362  TIP3      OH2            -3.0822628665       -3.9802724099       33.9936464474  TIP3      1162            0.0000000000
     28401      1362  TIP3      H1             -3.5521104023       -4.7515015320       33.6098300668  TIP3      1162            0.0000000000
     28402      1362  TIP3      H2             -2.5953588511       -4.4287687502       34.7049496160  TIP3      1162            0.0000000000
     28403      1363  TIP3      OH2            -4.6372145803       -8.2614504620       38.6660769420  TIP3      1163            0.0000000000
     28404      1363  TIP3      H1             -5.5431204708       -8.2884284352       39.0280029152  TIP3      1163            0.0000000000
     28405      1363  TIP3      H2             -4.2650561487       -7.4558070235       39.0742694259  TIP3      1163            0.0000000000
     28406      1364  TIP3      OH2            -3.3257089898       -9.9320131923       24.1654902865  TIP3      1164            0.0000000000
     28407      1364  TIP3      H1             -2.4420542367       -9.5581350823       24.2898552578  TIP3      1164            0.0000000000
     28408      1364  TIP3      H2             -3.3066790457      -10.6766457724       24.7970160461  TIP3      1164            0.0000000000
     28409      1365  TIP3      OH2            -2.9455676301      -11.8845040124       25.9588886913  TIP3      1165            0.0000000000
     28410      1365  TIP3      H1             -3.7138834309      -12.3480782707       26.3603103248  TIP3      1165            0.0000000000
     28411      1365  TIP3      H2             -2.3677203096      -11.7142217146       26.7299611846  TIP3      1165            0.0000000000
     28412      1366  TIP3      OH2            -3.2045423121       -9.1607992676       30.9669319840  TIP3      1166            0.0000000000
     28413      1366  TIP3      H1             -2.3903148506       -9.5373419370       30.5902875191  TIP3      1166            0.0000000000
     28414      1366  TIP3      H2             -3.0579213894       -8.2062821266       30.7943657229  TIP3      1166            0.0000000000
     28415      1367  TIP3      OH2            -4.6427402268       -6.2530242611       33.2315924098  TIP3      1167            0.0000000000
     28416      1367  TIP3      H1             -5.3345851856       -5.9121525708       33.8222862741  TIP3      1167            0.0000000000
     28417      1367  TIP3      H2             -5.1929703268       -6.6563750991       32.5265104751  TIP3      1167            0.0000000000
     28418      1368  TIP3      OH2            -5.1295479028      -13.3891009667       26.5455472643  TIP3      1168            0.0000000000
     28419      1368  TIP3      H1             -5.2960014898      -14.3422764134       26.5158093793  TIP3      1168            0.0000000000
     28420      1368  TIP3      H2             -5.4658780256      -13.1659115128       27.4325603332  TIP3      1168            0.0000000000
     28421      1369  TIP3      OH2           -20.1319833011      -11.2775387950       30.5975585997  TIP3      1169            0.0000000000
     28422      1369  TIP3      H1            -19.9385074770      -11.3874970521       29.6434136460  TIP3      1169            0.0000000000
     28423      1369  TIP3      H2            -19.2467314380      -11.4775557094       30.9587240525  TIP3      1169            0.0000000000
     28424      1370  TIP3      OH2            -4.2793156038      -11.4142915730       36.2422094626  TIP3      1170            0.0000000000
     28425      1370  TIP3      H1             -3.6690628485      -12.1713354181       36.3732466466  TIP3      1170            0.0000000000
     28426      1370  TIP3      H2             -3.6747992848      -10.6418603627       36.2440811379  TIP3      1170            0.0000000000
     28427      1371  TIP3      OH2            -2.7775550242      -13.5360848217       36.8918204301  TIP3      1171            0.0000000000
     28428      1371  TIP3      H1             -3.6607284780      -13.9345025725       36.7373460853  TIP3      1171            0.0000000000
     28429      1371  TIP3      H2             -2.2078013732      -14.3194083488       36.8154633654  TIP3      1171            0.0000000000
     28430      1372  TIP3      OH2            -5.4627384586      -15.7925747537       25.0415341686  TIP3      1172            0.0000000000
     28431      1372  TIP3      H1             -5.1911416925      -16.7383730565       25.1073139000  TIP3      1172            0.0000000000
     28432      1372  TIP3      H2             -4.6757859908      -15.4128413734       24.6277290254  TIP3      1172            0.0000000000
     28433      1373  TIP3      OH2            -4.8345997906      -15.2538069215       30.4544544806  TIP3      1173            0.0000000000
     28434      1373  TIP3      H1             -3.8731349014      -15.0258720996       30.4396990693  TIP3      1173            0.0000000000
     28435      1373  TIP3      H2             -5.0193130176      -15.1153474660       31.3947914036  TIP3      1173            0.0000000000
     28436      1374  TIP3      OH2            -4.7655811756      -14.5340345096       33.2403692059  TIP3      1174            0.0000000000
     28437      1374  TIP3      H1             -5.6516231745      -14.2452411010       33.5498415130  TIP3      1174            0.0000000000
     28438      1374  TIP3      H2             -4.3333497677      -13.6768671152       33.0124330310  TIP3      1174            0.0000000000
     28439      1375  TIP3      OH2           -20.5141241565      -15.9932310188       36.7735174297  TIP3      1175            0.0000000000
     28440      1375  TIP3      H1            -19.5776159969      -16.2121665140       36.9582924713  TIP3      1175            0.0000000000
     28441      1375  TIP3      H2            -20.9736714954      -16.8194685049       37.0377623327  TIP3      1175            0.0000000000
     28442      1376  TIP3      OH2            -2.4947784334      -20.4680343396       38.5720639346  TIP3      1176            0.0000000000
     28443      1376  TIP3      H1             -2.1422214752      -21.1296483157       37.9520950932  TIP3      1176            0.0000000000
     28444      1376  TIP3      H2             -2.3938389439      -19.6540748837       38.0389946132  TIP3      1176            0.0000000000
     28445      1377  TIP3      OH2            -4.8152532782      -18.5094852450       25.0646648644  TIP3      1177            0.0000000000
     28446      1377  TIP3      H1             -4.5765488434      -18.9496561473       25.9074939830  TIP3      1177            0.0000000000
     28447      1377  TIP3      H2             -5.4049788612      -19.1603598864       24.6238495123  TIP3      1177            0.0000000000
     28448      1378  TIP3      OH2           -19.3247103276      -17.7193785587       29.6183711403  TIP3      1178            0.0000000000
     28449      1378  TIP3      H1            -18.8496303740      -18.5335479732       29.8737616682  TIP3      1178            0.0000000000
     28450      1378  TIP3      H2            -18.7766839658      -17.0071796417       29.9844768603  TIP3      1178            0.0000000000
     28451      1379  TIP3      OH2           -21.0507423722      -14.6867771786       30.6552581365  TIP3      1179            0.0000000000
     28452      1379  TIP3      H1            -20.4609136578      -14.9402273827       29.9011085953  TIP3      1179            0.0000000000
     28453      1379  TIP3      H2            -20.5605176388      -13.8947476166       30.9133592445  TIP3      1179            0.0000000000
     28454      1380  TIP3      OH2            -2.9746983184      -18.3703793197       36.9274200703  TIP3      1180            0.0000000000
     28455      1380  TIP3      H1             -3.9131184631      -18.0984472714       36.8760810529  TIP3      1180            0.0000000000
     28456      1380  TIP3      H2             -2.9418939455      -18.9226115188       36.1313349528  TIP3      1180            0.0000000000
     28457      1381  TIP3      OH2            -2.8972344311      -18.5374404400       21.6658344397  TIP3      1181            0.0000000000
     28458      1381  TIP3      H1             -2.5838945606      -19.1642489802       21.0027197418  TIP3      1181            0.0000000000
     28459      1381  TIP3      H2             -2.2940976347      -17.7919088920       21.6053455959  TIP3      1181            0.0000000000
     28460      1382  TIP3      OH2           -20.6814948176      -18.4384731973       24.7346359011  TIP3      1182            0.0000000000
     28461      1382  TIP3      H1            -21.6208697393      -18.2600417160       24.5932763534  TIP3      1182            0.0000000000
     28462      1382  TIP3      H2            -20.2569544275      -17.9780624569       23.9925924440  TIP3      1182            0.0000000000
     28463      1383  TIP3      OH2            -5.9312644146       -3.5053284826       26.6668699499  TIP3      1183            0.0000000000
     28464      1383  TIP3      H1             -5.2537580450       -3.7907668189       26.0334092758  TIP3      1183            0.0000000000
     28465      1383  TIP3      H2             -5.4196771685       -2.9927962419       27.3071370056  TIP3      1183            0.0000000000
     28466      1384  TIP3      OH2           -20.7168225358      -19.7816762137       33.0240450308  TIP3      1184            0.0000000000
     28467      1384  TIP3      H1            -21.3883281917      -19.9821292845       33.6985811413  TIP3      1184            0.0000000000
     28468      1384  TIP3      H2            -21.1768019177      -19.1174043866       32.4742249025  TIP3      1184            0.0000000000
     28469      1385  TIP3      OH2           -18.4791445281       -6.5999633612       37.1807064078  TIP3      1185            0.0000000000
     28470      1385  TIP3      H1            -19.3161806794       -6.3727141450       36.7419575695  TIP3      1185            0.0000000000
     28471      1385  TIP3      H2            -18.7487563045       -6.6681733836       38.0993906750  TIP3      1185            0.0000000000
     28472      1386  TIP3      OH2           -15.5810065939       -5.5831867180       33.4608795923  TIP3      1186            0.0000000000
     28473      1386  TIP3      H1            -15.9088054864       -4.7160221837       33.1877161146  TIP3      1186            0.0000000000
     28474      1386  TIP3      H2            -14.6543988854       -5.5012425769       33.1545821611  TIP3      1186            0.0000000000
     28475      1387  TIP3      OH2           -11.2608055969       -4.1597577894       36.3612208567  TIP3      1187            0.0000000000
     28476      1387  TIP3      H1            -11.1237287204       -4.5151366319       37.2703779648  TIP3      1187            0.0000000000
     28477      1387  TIP3      H2            -10.3577094103       -3.8585374010       36.1212951636  TIP3      1187            0.0000000000
     28478      1388  TIP3      OH2            -8.9754599134       -2.8935860794       35.6747630528  TIP3      1188            0.0000000000
     28479      1388  TIP3      H1             -8.2437629453       -3.4822163930       35.4363355188  TIP3      1188            0.0000000000
     28480      1388  TIP3      H2             -8.5983126249       -2.4551412687       36.4677369879  TIP3      1188            0.0000000000
     28481      1389  TIP3      OH2            -3.9532165466      -20.2809109354       34.7817955287  TIP3      1189            0.0000000000
     28482      1389  TIP3      H1             -4.7818038781      -19.9819994544       34.3700722304  TIP3      1189            0.0000000000
     28483      1389  TIP3      H2             -3.7863529619      -21.1044382682       34.2649618196  TIP3      1189            0.0000000000
     28484      1390  TIP3      OH2           -18.1739262752       -2.3702374490       33.4346988760  TIP3      1190            0.0000000000
     28485      1390  TIP3      H1            -18.8874609758       -1.8326918563       33.0660752783  TIP3      1190            0.0000000000
     28486      1390  TIP3      H2            -18.4559163867       -2.5406015016       34.3479352880  TIP3      1190            0.0000000000
     28487      1391  TIP3      OH2           -15.6902355028       -2.7706190088       32.5280451880  TIP3      1191            0.0000000000
     28488      1391  TIP3      H1            -16.5829825297       -2.6212060810       32.9189595671  TIP3      1191            0.0000000000
     28489      1391  TIP3      H2            -15.7440259245       -2.1821820016       31.7528853112  TIP3      1191            0.0000000000
     28490      1392  TIP3      OH2           -10.9786886778       -2.8664935166       31.6898906863  TIP3      1192            0.0000000000
     28491      1392  TIP3      H1            -11.4502324987       -2.3147372642       31.0466050747  TIP3      1192            0.0000000000
     28492      1392  TIP3      H2            -10.8530162851       -2.2332669192       32.4290867970  TIP3      1192            0.0000000000
     28493      1393  TIP3      OH2            -8.6958203924       -4.0526578065       32.7301745306  TIP3      1193            0.0000000000
     28494      1393  TIP3      H1             -9.5473017736       -3.7733561127       32.3553015024  TIP3      1193            0.0000000000
     28495      1393  TIP3      H2             -8.2073790296       -3.2168116673       32.6351797663  TIP3      1193            0.0000000000
     28496      1394  TIP3      OH2            -6.1057882503       -2.4774235761       32.9463185597  TIP3      1194            0.0000000000
     28497      1394  TIP3      H1             -6.1607967900       -1.5188857411       32.7154835025  TIP3      1194            0.0000000000
     28498      1394  TIP3      H2             -5.8936353372       -2.8558837195       32.0694069318  TIP3      1194            0.0000000000
     28499      1395  TIP3      OH2           -18.7578718391       -3.7167379112       30.3863321672  TIP3      1195            0.0000000000
     28500      1395  TIP3      H1            -18.7625697277       -4.1650278290       31.2618145699  TIP3      1195            0.0000000000
     28501      1395  TIP3      H2            -17.9075517700       -4.0603909136       30.0130529964  TIP3      1195            0.0000000000
     28502      1396  TIP3      OH2           -16.6331984131       -4.9853453054       29.0678154258  TIP3      1196            0.0000000000
     28503      1396  TIP3      H1            -16.7846797599       -5.9240217647       29.2922983873  TIP3      1196            0.0000000000
     28504      1396  TIP3      H2            -15.7638674589       -4.8328360877       29.4948859118  TIP3      1196            0.0000000000
     28505      1397  TIP3      OH2           -14.0251403493       -4.5054902520       29.9430789977  TIP3      1197            0.0000000000
     28506      1397  TIP3      H1            -13.8701290292       -5.4254538396       29.6584458525  TIP3      1197            0.0000000000
     28507      1397  TIP3      H2            -13.9777901840       -4.5847069108       30.9054602362  TIP3      1197            0.0000000000
     28508      1398  TIP3      OH2           -10.5569961567      -18.8674182110       29.0715453648  TIP3      1198            0.0000000000
     28509      1398  TIP3      H1            -11.2410394872      -19.5003835475       29.3462401048  TIP3      1198            0.0000000000
     28510      1398  TIP3      H2            -10.0106426418      -19.3955978151       28.4785545557  TIP3      1198            0.0000000000
     28511      1399  TIP3      OH2            -5.4297578340      -20.8106519781       29.1250703496  TIP3      1199            0.0000000000
     28512      1399  TIP3      H1             -4.8174652191      -20.2139928161       28.6203770772  TIP3      1199            0.0000000000
     28513      1399  TIP3      H2             -6.3133092863      -20.4472034140       28.9022985344  TIP3      1199            0.0000000000
     28514      1400  TIP3      OH2            -3.7597650689      -19.5571128335       27.4047482622  TIP3      1200            0.0000000000
     28515      1400  TIP3      H1             -3.0761755591      -20.1339192287       26.9881506302  TIP3      1200            0.0000000000
     28516      1400  TIP3      H2             -3.2511996911      -18.7215380433       27.5124568778  TIP3      1200            0.0000000000
     28517      1401  TIP3      OH2           -18.2076619550      -20.2334037052       26.9532269971  TIP3      1201            0.0000000000
     28518      1401  TIP3      H1            -18.9946862719      -20.4187855554       26.4068360142  TIP3      1201            0.0000000000
     28519      1401  TIP3      H2            -17.7317897579      -21.0799946702       26.8462574267  TIP3      1201            0.0000000000
     28520      1402  TIP3      OH2           -13.7340279308      -20.2846321844       26.7065740638  TIP3      1202            0.0000000000
     28521      1402  TIP3      H1            -12.8252757434      -19.9553674314       26.6206489554  TIP3      1202            0.0000000000
     28522      1402  TIP3      H2            -13.7532482616      -20.5281855733       27.6306378036  TIP3      1202            0.0000000000
     28523      1403  TIP3      OH2            -8.0063036186      -20.2861820580       28.3210573462  TIP3      1203            0.0000000000
     28524      1403  TIP3      H1             -8.0592756213      -20.1678399034       27.3642185964  TIP3      1203            0.0000000000
     28525      1403  TIP3      H2             -8.3855128439      -21.1912058847       28.4421730025  TIP3      1203            0.0000000000
     28526      1404  TIP3      OH2            -6.7536540705      -20.2378741906       23.9674166614  TIP3      1204            0.0000000000
     28527      1404  TIP3      H1             -7.5105767414      -19.6484470333       23.8568262357  TIP3      1204            0.0000000000
     28528      1404  TIP3      H2             -7.1754333091      -21.0993956350       24.1920751161  TIP3      1204            0.0000000000
     28529      1405  TIP3      OH2           -19.6040326185       -4.5249244340       23.6758833152  TIP3      1205            0.0000000000
     28530      1405  TIP3      H1            -20.1328468065       -4.4980492625       22.8801454930  TIP3      1205            0.0000000000
     28531      1405  TIP3      H2            -19.4204772651       -3.5751248462       23.7887385523  TIP3      1205            0.0000000000
     28532      1406  TIP3      OH2           -12.5576019624      -18.2575264623       23.5428265272  TIP3      1206            0.0000000000
     28533      1406  TIP3      H1            -12.3405450595      -18.8480124978       24.2791469866  TIP3      1206            0.0000000000
     28534      1406  TIP3      H2            -12.5094769887      -17.4021043209       24.0234222355  TIP3      1206            0.0000000000
     28535      1407  TIP3      OH2            -3.9328769395       -3.6691187319       24.6581693345  TIP3      1207            0.0000000000
     28536      1407  TIP3      H1             -4.1442505171       -4.4884476824       24.1457464037  TIP3      1207            0.0000000000
     28537      1407  TIP3      H2             -4.0170155608       -2.9520071851       24.0228828130  TIP3      1207            0.0000000000
     28538      1408  TIP3      OH2           -18.3085466936      -19.6701502629       36.3522296406  TIP3      1208            0.0000000000
     28539      1408  TIP3      H1            -18.7051509917      -20.4628877852       36.7549059921  TIP3      1208            0.0000000000
     28540      1408  TIP3      H2            -17.3993290016      -19.7105767030       36.7309102307  TIP3      1208            0.0000000000
     28541      1409  TIP3      OH2           -16.3074665452      -20.3030978277       38.0183527172  TIP3      1209            0.0000000000
     28542      1409  TIP3      H1            -15.4136817228      -20.6213693768       37.7752272553  TIP3      1209            0.0000000000
     28543      1409  TIP3      H2            -16.6844326016      -21.1092137803       38.3940077895  TIP3      1209            0.0000000000
     28544      1410  TIP3      OH2           -17.8636121519       -3.7306250023       20.5128425367  TIP3      1210            0.0000000000
     28545      1410  TIP3      H1            -17.9288323139       -3.2814595997       21.3813816529  TIP3      1210            0.0000000000
     28546      1410  TIP3      H2            -16.9603375203       -4.0319498013       20.6835600131  TIP3      1210            0.0000000000
     28547      1411  TIP3      OH2            -7.9071785548      -21.0176385660       38.1575452436  TIP3      1211            0.0000000000
     28548      1411  TIP3      H1             -7.8126764589      -21.4905542776       39.0073838093  TIP3      1211            0.0000000000
     28549      1411  TIP3      H2             -6.9892970251      -21.0505705379       37.8144872513  TIP3      1211            0.0000000000
     28550      1412  TIP3      OH2            -4.6952712764       -4.9655638563       36.7886303134  TIP3      1212            0.0000000000
     28551      1412  TIP3      H1             -5.4993000282       -5.1017029344       36.2414900475  TIP3      1212            0.0000000000
     28552      1412  TIP3      H2             -4.8117344307       -4.0190677653       37.0063437583  TIP3      1212            0.0000000000
     28553      1413  TIP3      OH2             9.7579985201      -11.0768739861       26.7773423534  TIP3      1213            0.0000000000
     28554      1413  TIP3      H1              9.7345815658      -10.1005553409       26.7239449800  TIP3      1213            0.0000000000
     28555      1413  TIP3      H2              9.0291106236      -11.3223071286       26.1823066617  TIP3      1213            0.0000000000
     28556      1414  TIP3      OH2             8.6073056367      -11.8353504528       30.2700757629  TIP3      1214            0.0000000000
     28557      1414  TIP3      H1              8.5948680582      -12.4846660306       30.9876157852  TIP3      1214            0.0000000000
     28558      1414  TIP3      H2              8.2547974736      -12.3439061676       29.5192564646  TIP3      1214            0.0000000000
     28559      1415  TIP3      OH2             0.9562800165      -12.1561345546       31.8228365439  TIP3      1215            0.0000000000
     28560      1415  TIP3      H1              1.0407147523      -12.8444297955       32.5155927898  TIP3      1215            0.0000000000
     28561      1415  TIP3      H2              1.7067811840      -11.5869432129       32.0463886616  TIP3      1215            0.0000000000
     28562      1416  TIP3      OH2            12.3033080313       -8.8810500600       28.5584298169  TIP3      1216            0.0000000000
     28563      1416  TIP3      H1             11.8786283067       -9.5974915988       29.0430781391  TIP3      1216            0.0000000000
     28564      1416  TIP3      H2             12.3147150224       -8.1741136517       29.2288712787  TIP3      1216            0.0000000000
     28565      1417  TIP3      OH2             1.8801738766       -7.7119002541       30.3243855438  TIP3      1217            0.0000000000
     28566      1417  TIP3      H1              1.5716852111       -8.5800573515       30.0040933478  TIP3      1217            0.0000000000
     28567      1417  TIP3      H2              2.8376252934       -7.8914233670       30.3670815725  TIP3      1217            0.0000000000
     28568      1418  TIP3      OH2            -1.4586566619      -14.1583820899       25.7549545141  TIP3      1218            0.0000000000
     28569      1418  TIP3      H1             -1.8962211345      -13.2818526192       25.7779322192  TIP3      1218            0.0000000000
     28570      1418  TIP3      H2             -2.0767975987      -14.7001734359       25.2561170141  TIP3      1218            0.0000000000
     28571      1419  TIP3      OH2            -0.7738382926      -11.9332424165       27.9494113256  TIP3      1219            0.0000000000
     28572      1419  TIP3      H1             -0.4945120594      -12.7499625067       28.4048604683  TIP3      1219            0.0000000000
     28573      1419  TIP3      H2             -0.0653778254      -11.8129503543       27.3004250765  TIP3      1219            0.0000000000
     28574      1420  TIP3      OH2             9.4132064375       -3.7249711077       28.7995013242  TIP3      1220            0.0000000000
     28575      1420  TIP3      H1             10.0583067144       -4.4143381756       28.5042545903  TIP3      1220            0.0000000000
     28576      1420  TIP3      H2              9.1935222380       -4.0688648846       29.6653815396  TIP3      1220            0.0000000000
     28577      1421  TIP3      OH2             6.9801258543       -9.4387927721       30.7462424454  TIP3      1221            0.0000000000
     28578      1421  TIP3      H1              7.3168839521      -10.0611752983       30.0838281388  TIP3      1221            0.0000000000
     28579      1421  TIP3      H2              7.7919908244       -9.2771727963       31.2578733492  TIP3      1221            0.0000000000
     28580      1422  TIP3      OH2            15.5702963226      -17.7686127727       31.4635768571  TIP3      1222            0.0000000000
     28581      1422  TIP3      H1             15.7542114739      -17.1868449272       32.2341479853  TIP3      1222            0.0000000000
     28582      1422  TIP3      H2             16.1445854789      -17.3522142028       30.8051871014  TIP3      1222            0.0000000000
     28583      1423  TIP3      OH2            10.1474883626      -14.9666263411       31.0571982321  TIP3      1223            0.0000000000
     28584      1423  TIP3      H1             10.3158408425      -15.9246500295       31.0627314845  TIP3      1223            0.0000000000
     28585      1423  TIP3      H2             10.0434414547      -14.8258397208       30.0963140622  TIP3      1223            0.0000000000
     28586      1424  TIP3      OH2             3.2537743371      -16.8799532594       28.2678769766  TIP3      1224            0.0000000000
     28587      1424  TIP3      H1              3.3688018155      -16.0418104930       27.7756947803  TIP3      1224            0.0000000000
     28588      1424  TIP3      H2              2.8623232254      -17.4496418365       27.5711821494  TIP3      1224            0.0000000000
     28589      1425  TIP3      OH2            11.0013486615      -16.7925300199       26.6550912922  TIP3      1225            0.0000000000
     28590      1425  TIP3      H1             11.6598636536      -17.1089609173       27.3142422897  TIP3      1225            0.0000000000
     28591      1425  TIP3      H2             11.5500868514      -16.2195342319       26.0957675843  TIP3      1225            0.0000000000
     28592      1426  TIP3      OH2            -0.1156998938      -14.4657417054       29.0041628103  TIP3      1226            0.0000000000
     28593      1426  TIP3      H1              0.5536401449      -15.0087465988       29.4606635409  TIP3      1226            0.0000000000
     28594      1426  TIP3      H2             -0.0072770189      -14.7804157169       28.0934808298  TIP3      1226            0.0000000000
     28595      1427  TIP3      OH2             5.0372218360      -12.9134607322       28.3398354663  TIP3      1227            0.0000000000
     28596      1427  TIP3      H1              5.7173568853      -13.4950127638       28.7243026968  TIP3      1227            0.0000000000
     28597      1427  TIP3      H2              4.5315104995      -13.5636346331       27.8118350823  TIP3      1227            0.0000000000
     28598      1428  TIP3      OH2            16.0064216671      -16.3802124296       33.7370004454  TIP3      1228            0.0000000000
     28599      1428  TIP3      H1             15.4132895228      -15.6014686006       33.6328323592  TIP3      1228            0.0000000000
     28600      1428  TIP3      H2             16.0567643615      -16.4459373727       34.7008763262  TIP3      1228            0.0000000000
     28601      1429  TIP3      OH2             2.1714887318      -17.9764972548       32.3104936042  TIP3      1229            0.0000000000
     28602      1429  TIP3      H1              1.8878932606      -17.4057120897       31.5649088445  TIP3      1229            0.0000000000
     28603      1429  TIP3      H2              1.4942141757      -17.7486141589       32.9931703061  TIP3      1229            0.0000000000
     28604      1430  TIP3      OH2             9.4531094324       -8.4855222433       25.8609609207  TIP3      1230            0.0000000000
     28605      1430  TIP3      H1              9.1647090873       -8.7658679449       24.9773487956  TIP3      1230            0.0000000000
     28606      1430  TIP3      H2              9.1535008266       -7.5494829697       25.8969049460  TIP3      1230            0.0000000000
     28607      1431  TIP3      OH2             4.6817555145      -10.3347634149       32.5484211070  TIP3      1231            0.0000000000
     28608      1431  TIP3      H1              3.9782772977       -9.6896340922       32.7715093137  TIP3      1231            0.0000000000
     28609      1431  TIP3      H2              5.3884556496       -9.7365477925       32.2575407016  TIP3      1231            0.0000000000
     28610      1432  TIP3      OH2            12.8190805065      -17.4535544291       28.6319350547  TIP3      1232            0.0000000000
     28611      1432  TIP3      H1             12.5812584121      -18.2097852896       29.1757754820  TIP3      1232            0.0000000000
     28612      1432  TIP3      H2             13.4820475693      -17.0136318116       29.1902523567  TIP3      1232            0.0000000000
     28613      1433  TIP3      OH2             1.7392755236      -16.1199414626       30.3490144393  TIP3      1233            0.0000000000
     28614      1433  TIP3      H1              2.3669571561      -15.4308209565       30.6607395261  TIP3      1233            0.0000000000
     28615      1433  TIP3      H2              2.2535084400      -16.5301928642       29.6089689431  TIP3      1233            0.0000000000
     28616      1434  TIP3      OH2             3.1318552293       -8.3275237982       33.3700307347  TIP3      1234            0.0000000000
     28617      1434  TIP3      H1              3.0821899120       -7.4142273180       33.0336363542  TIP3      1234            0.0000000000
     28618      1434  TIP3      H2              2.2495531390       -8.4089771973       33.8131868317  TIP3      1234            0.0000000000
     28619      1435  TIP3      OH2            -0.7955967404       -8.7120204607       24.1355911865  TIP3      1235            0.0000000000
     28620      1435  TIP3      H1             -1.0602895054       -8.3709022177       23.2703354333  TIP3      1235            0.0000000000
     28621      1435  TIP3      H2             -0.7264719764       -7.8927040538       24.6716397153  TIP3      1235            0.0000000000
     28622      1436  TIP3      OH2            12.8118952652       -7.0520697532       30.9357368651  TIP3      1236            0.0000000000
     28623      1436  TIP3      H1             11.8442483046       -6.9371403434       31.0455339996  TIP3      1236            0.0000000000
     28624      1436  TIP3      H2             13.0847957342       -6.1393042681       30.7201041263  TIP3      1236            0.0000000000
     28625      1437  TIP3      OH2            13.1378306579      -18.7617356661       32.3066634330  TIP3      1237            0.0000000000
     28626      1437  TIP3      H1             12.4155549894      -18.1264227107       32.2149237397  TIP3      1237            0.0000000000
     28627      1437  TIP3      H2             13.8557768726      -18.3416723257       31.7872539897  TIP3      1237            0.0000000000
     28628      1438  TIP3      OH2             6.1061522551      -20.6429542983       29.7771131325  TIP3      1238            0.0000000000
     28629      1438  TIP3      H1              5.9668540368      -21.6057791983       29.7021312208  TIP3      1238            0.0000000000
     28630      1438  TIP3      H2              5.2275870118      -20.3382178281       30.0838187056  TIP3      1238            0.0000000000
     28631      1439  TIP3      OH2            11.0736369267       -5.2555678983       27.5062983316  TIP3      1239            0.0000000000
     28632      1439  TIP3      H1             11.5109927434       -5.9800768025       27.0097207509  TIP3      1239            0.0000000000
     28633      1439  TIP3      H2             11.5282751093       -4.4679514877       27.1240785905  TIP3      1239            0.0000000000
     28634      1440  TIP3      OH2            12.2927402701       -7.3369983530       26.0200055378  TIP3      1240            0.0000000000
     28635      1440  TIP3      H1             11.9926647358       -8.0428442900       25.4248942639  TIP3      1240            0.0000000000
     28636      1440  TIP3      H2             12.3254109738       -7.8234720610       26.8642227670  TIP3      1240            0.0000000000
     28637      1441  TIP3      OH2            13.9064891438       -8.7390686599       34.5225960042  TIP3      1241            0.0000000000
     28638      1441  TIP3      H1             14.0522407838       -9.3953596398       33.8053971438  TIP3      1241            0.0000000000
     28639      1441  TIP3      H2             14.1156712399       -7.8985070035       34.0755619204  TIP3      1241            0.0000000000
     28640      1442  TIP3      OH2             8.4146727279      -11.8564621362       24.3262192998  TIP3      1242            0.0000000000
     28641      1442  TIP3      H1              7.6948773409      -11.3054320995       23.9489915004  TIP3      1242            0.0000000000
     28642      1442  TIP3      H2              9.0914897837      -11.7765673067       23.6238177428  TIP3      1242            0.0000000000
     28643      1443  TIP3      OH2            15.7946531390      -12.4272981105       32.5647771801  TIP3      1243            0.0000000000
     28644      1443  TIP3      H1             15.1376199165      -11.7027689077       32.6029632162  TIP3      1243            0.0000000000
     28645      1443  TIP3      H2             16.2913189764      -12.1952055567       31.7590895884  TIP3      1243            0.0000000000
     28646      1444  TIP3      OH2            11.8514274386      -11.6704793773       25.2078209631  TIP3      1244            0.0000000000
     28647      1444  TIP3      H1             11.1227157782      -11.3925686379       25.8200232224  TIP3      1244            0.0000000000
     28648      1444  TIP3      H2             12.3355904435      -12.3076657006       25.7658371011  TIP3      1244            0.0000000000
     28649      1445  TIP3      OH2            11.7826400441      -13.4763705792       34.3328613867  TIP3      1245            0.0000000000
     28650      1445  TIP3      H1             11.7900885518      -12.6563057259       34.8541048644  TIP3      1245            0.0000000000
     28651      1445  TIP3      H2             11.1535093368      -13.1849371155       33.6405326122  TIP3      1245            0.0000000000
     28652      1446  TIP3      OH2             3.4494321719      -10.9897042529       27.1308763095  TIP3      1246            0.0000000000
     28653      1446  TIP3      H1              3.1474803557      -11.3770254380       26.2757336548  TIP3      1246            0.0000000000
     28654      1446  TIP3      H2              4.0845000983      -11.6688729234       27.4546726013  TIP3      1246            0.0000000000
     28655      1447  TIP3      OH2             4.7805890660       -7.6037809212       29.8026246803  TIP3      1247            0.0000000000
     28656      1447  TIP3      H1              4.7788896088       -8.1193646083       28.9858344252  TIP3      1247            0.0000000000
     28657      1447  TIP3      H2              5.5664048817       -7.9570145934       30.2592316774  TIP3      1247            0.0000000000
     28658      1448  TIP3      OH2             3.7915614334      -12.2352318461       30.7883591034  TIP3      1248            0.0000000000
     28659      1448  TIP3      H1              4.3400251563      -12.1395544607       29.9843198558  TIP3      1248            0.0000000000
     28660      1448  TIP3      H2              4.1862292219      -11.5698614167       31.3950141359  TIP3      1248            0.0000000000
     28661      1449  TIP3      OH2            10.2176435649       -6.6639386228       31.4949150190  TIP3      1249            0.0000000000
     28662      1449  TIP3      H1              9.9241833079       -6.0260447680       32.1519647849  TIP3      1249            0.0000000000
     28663      1449  TIP3      H2              9.9571662554       -7.5157087080       31.9159127631  TIP3      1249            0.0000000000
     28664      1450  TIP3      OH2             4.7479554199       -7.8042257617       35.4818842877  TIP3      1250            0.0000000000
     28665      1450  TIP3      H1              4.3314027575       -7.0665656635       35.9725247233  TIP3      1250            0.0000000000
     28666      1450  TIP3      H2              4.0758966987       -8.0052019600       34.7846315994  TIP3      1250            0.0000000000
     28667      1451  TIP3      OH2            10.7374385202      -12.4316386621       22.8649684265  TIP3      1251            0.0000000000
     28668      1451  TIP3      H1             11.2514198283      -12.2626960046       23.6929755275  TIP3      1251            0.0000000000
     28669      1451  TIP3      H2             11.1531898610      -11.8738014480       22.2160547180  TIP3      1251            0.0000000000
     28670      1452  TIP3      OH2             1.6896739252      -11.6460148482       34.6346080948  TIP3      1252            0.0000000000
     28671      1452  TIP3      H1              1.7437293329      -10.9773516667       35.3417925063  TIP3      1252            0.0000000000
     28672      1452  TIP3      H2              0.7467851251      -11.5584456424       34.4245319988  TIP3      1252            0.0000000000
     28673      1453  TIP3      OH2             8.4517880115       -5.7215316496       26.3434891886  TIP3      1253            0.0000000000
     28674      1453  TIP3      H1              8.8775871502       -5.4108930928       27.1518255395  TIP3      1253            0.0000000000
     28675      1453  TIP3      H2              7.8882363237       -4.9733365405       26.1074367451  TIP3      1253            0.0000000000
     28676      1454  TIP3      OH2             2.9949453063       -5.7694585345       36.2297069802  TIP3      1254            0.0000000000
     28677      1454  TIP3      H1              2.9330352654       -5.8694035773       35.2639336810  TIP3      1254            0.0000000000
     28678      1454  TIP3      H2              2.0654645948       -5.9062901107       36.4970176864  TIP3      1254            0.0000000000
     28679      1455  TIP3      OH2            14.4669535906      -20.6495991488       22.8824312188  TIP3      1255            0.0000000000
     28680      1455  TIP3      H1             13.4760514605      -20.6021141194       22.9819523595  TIP3      1255            0.0000000000
     28681      1455  TIP3      H2             14.5943823835      -19.8666758567       22.3040154638  TIP3      1255            0.0000000000
     28682      1456  TIP3      OH2             2.4308772983      -11.9649019667       24.7204942863  TIP3      1256            0.0000000000
     28683      1456  TIP3      H1              2.1541262321      -11.1738350567       24.2125345039  TIP3      1256            0.0000000000
     28684      1456  TIP3      H2              1.7626717082      -12.6230115127       24.5008972721  TIP3      1256            0.0000000000
     28685      1457  TIP3      OH2            -1.4820580784       -9.5320223550       33.6436519618  TIP3      1257            0.0000000000
     28686      1457  TIP3      H1             -1.9184511102       -9.6113115228       32.7765604100  TIP3      1257            0.0000000000
     28687      1457  TIP3      H2             -1.3939812131      -10.4792182214       33.8551349548  TIP3      1257            0.0000000000
     28688      1458  TIP3      OH2            -1.7165442275       -6.7951370665       30.4147938525  TIP3      1258            0.0000000000
     28689      1458  TIP3      H1             -0.7581951900       -6.9103413690       30.3937738406  TIP3      1258            0.0000000000
     28690      1458  TIP3      H2             -1.7978482523       -5.9759563195       30.9180102758  TIP3      1258            0.0000000000
     28691      1459  TIP3      OH2            16.5252552725       -6.0890044212       36.1061308555  TIP3      1259            0.0000000000
     28692      1459  TIP3      H1             16.4054875224       -7.0498714227       36.0766684624  TIP3      1259            0.0000000000
     28693      1459  TIP3      H2             15.6504762602       -5.8421362744       36.4899551410  TIP3      1259            0.0000000000
     28694      1460  TIP3      OH2             7.4803848147       -6.5518246402       34.9654418666  TIP3      1260            0.0000000000
     28695      1460  TIP3      H1              7.5388437033       -5.7089611984       35.4737100181  TIP3      1260            0.0000000000
     28696      1460  TIP3      H2              6.6079968845       -6.9111724298       35.2170912778  TIP3      1260            0.0000000000
     28697      1461  TIP3      OH2             7.9291025729       -2.7817297339       24.7509339972  TIP3      1261            0.0000000000
     28698      1461  TIP3      H1              7.8356161283       -2.8586112741       23.7743649515  TIP3      1261            0.0000000000
     28699      1461  TIP3      H2              7.9703260710       -1.8185997131       24.9101146243  TIP3      1261            0.0000000000
     28700      1462  TIP3      OH2             1.5456744123       -3.9040236312       26.6169043913  TIP3      1262            0.0000000000
     28701      1462  TIP3      H1              1.7086149535       -4.3496236081       27.4762056218  TIP3      1262            0.0000000000
     28702      1462  TIP3      H2              0.7198042910       -4.3402836428       26.3482750631  TIP3      1262            0.0000000000
     28703      1463  TIP3      OH2            10.8934905950       -3.6554467147       21.7253962634  TIP3      1263            0.0000000000
     28704      1463  TIP3      H1             11.4918556968       -4.3086209898       21.3440363799  TIP3      1263            0.0000000000
     28705      1463  TIP3      H2             11.0037364481       -3.8309784443       22.6769374601  TIP3      1263            0.0000000000
     28706      1464  TIP3      OH2            10.6420510022       -3.6370086679       24.5528424797  TIP3      1264            0.0000000000
     28707      1464  TIP3      H1              9.6796868656       -3.5826232257       24.7106933837  TIP3      1264            0.0000000000
     28708      1464  TIP3      H2             10.9085853301       -4.4043770281       25.0790619919  TIP3      1264            0.0000000000
     28709      1465  TIP3      OH2            13.6726561019      -14.6263202092       36.5778510417  TIP3      1265            0.0000000000
     28710      1465  TIP3      H1             13.2134280108      -14.1652733417       35.8584631819  TIP3      1265            0.0000000000
     28711      1465  TIP3      H2             13.6542365727      -15.5436778764       36.2669667026  TIP3      1265            0.0000000000
     28712      1466  TIP3      OH2             0.8110928963       -8.2122401231       34.5772974205  TIP3      1266            0.0000000000
     28713      1466  TIP3      H1              1.0328957746       -8.5774214955       35.4592541797  TIP3      1266            0.0000000000
     28714      1466  TIP3      H2             -0.0577866984       -8.6113727646       34.3658008375  TIP3      1266            0.0000000000
     28715      1467  TIP3      OH2             3.4918511995      -19.7377612637       30.5247428576  TIP3      1267            0.0000000000
     28716      1467  TIP3      H1              2.5894022791      -19.8672681602       30.1606908757  TIP3      1267            0.0000000000
     28717      1467  TIP3      H2              3.3566577510      -18.9099182648       31.0142422996  TIP3      1267            0.0000000000
     28718      1468  TIP3      OH2             8.1357995655      -20.0755984143       33.8874468453  TIP3      1268            0.0000000000
     28719      1468  TIP3      H1              8.5273156039      -20.4979819775       34.6743017065  TIP3      1268            0.0000000000
     28720      1468  TIP3      H2              7.1634229329      -20.1895191377       34.0340839837  TIP3      1268            0.0000000000
     28721      1469  TIP3      OH2            11.4223913846      -16.2255446786       34.7906977826  TIP3      1269            0.0000000000
     28722      1469  TIP3      H1             10.8568441651      -16.4414320389       35.5712068979  TIP3      1269            0.0000000000
     28723      1469  TIP3      H2             11.2374473281      -15.2982157227       34.5626666983  TIP3      1269            0.0000000000
     28724      1470  TIP3      OH2             3.5998334743      -14.7618568961       31.7981933646  TIP3      1270            0.0000000000
     28725      1470  TIP3      H1              2.8532227334      -14.7743954409       32.4223746218  TIP3      1270            0.0000000000
     28726      1470  TIP3      H2              3.5460049055      -13.8599065044       31.4098314272  TIP3      1270            0.0000000000
     28727      1471  TIP3      OH2             3.5563598291      -14.6577784064       26.6399570966  TIP3      1271            0.0000000000
     28728      1471  TIP3      H1              2.6177588667      -14.9080698801       26.5041128499  TIP3      1271            0.0000000000
     28729      1471  TIP3      H2              3.9302721072      -14.9476870454       25.7815070258  TIP3      1271            0.0000000000
     28730      1472  TIP3      OH2             9.0775698986      -14.1585410012       25.4090968145  TIP3      1272            0.0000000000
     28731      1472  TIP3      H1              8.6808749986      -13.3252658337       25.0647515975  TIP3      1272            0.0000000000
     28732      1472  TIP3      H2              9.7525385171      -14.3289427019       24.7299787190  TIP3      1272            0.0000000000
     28733      1473  TIP3      OH2             8.1266294684      -13.9372388166       36.8514274062  TIP3      1273            0.0000000000
     28734      1473  TIP3      H1              7.6022555401      -14.7133091149       37.1622272631  TIP3      1273            0.0000000000
     28735      1473  TIP3      H2              8.9649434108      -14.0572258330       37.3281132561  TIP3      1273            0.0000000000
     28736      1474  TIP3      OH2            10.1070525568      -14.6502698801       28.2570199251  TIP3      1274            0.0000000000
     28737      1474  TIP3      H1              9.8238232483      -14.0940193167       27.5117105340  TIP3      1274            0.0000000000
     28738      1474  TIP3      H2             10.2034833220      -15.5039786832       27.7929647251  TIP3      1274            0.0000000000
     28739      1475  TIP3      OH2             1.2156409047      -14.5182964576       33.4588358279  TIP3      1275            0.0000000000
     28740      1475  TIP3      H1              1.2992219581      -14.1099813321       34.3381881631  TIP3      1275            0.0000000000
     28741      1475  TIP3      H2              0.7739236158      -15.3560719691       33.6697983565  TIP3      1275            0.0000000000
     28742      1476  TIP3      OH2            -2.1263541546      -17.4095493642       27.4531637805  TIP3      1276            0.0000000000
     28743      1476  TIP3      H1             -1.4418943078      -17.4482814433       28.1514317284  TIP3      1276            0.0000000000
     28744      1476  TIP3      H2             -1.6782943031      -17.7805888529       26.6694734143  TIP3      1276            0.0000000000
     28745      1477  TIP3      OH2            -0.8156408885      -16.6470794533       22.8357197359  TIP3      1277            0.0000000000
     28746      1477  TIP3      H1             -0.3860978504      -16.0593848250       22.2082652620  TIP3      1277            0.0000000000
     28747      1477  TIP3      H2             -1.5476923413      -16.0647683532       23.1334241074  TIP3      1277            0.0000000000
     28748      1478  TIP3      OH2             9.3027084075      -13.0742237195       32.8126654095  TIP3      1278            0.0000000000
     28749      1478  TIP3      H1              9.6852414658      -13.7607110695       32.2294906800  TIP3      1278            0.0000000000
     28750      1478  TIP3      H2              8.8361422640      -13.6011793780       33.4859295702  TIP3      1278            0.0000000000
     28751      1479  TIP3      OH2             6.1090295771      -17.0871987859       27.6595865796  TIP3      1279            0.0000000000
     28752      1479  TIP3      H1              5.1733989513      -17.0920997686       27.9440875050  TIP3      1279            0.0000000000
     28753      1479  TIP3      H2              6.5886529919      -17.2662322234       28.4801851689  TIP3      1279            0.0000000000
     28754      1480  TIP3      OH2             0.9197466706      -15.5423523676       26.5143688387  TIP3      1280            0.0000000000
     28755      1480  TIP3      H1              0.0337391438      -15.4001767866       26.1248726030  TIP3      1280            0.0000000000
     28756      1480  TIP3      H2              1.2205687061      -16.3774287450       26.1123045800  TIP3      1280            0.0000000000
     28757      1481  TIP3      OH2             4.5344744810      -15.4608139131       24.1574610053  TIP3      1281            0.0000000000
     28758      1481  TIP3      H1              5.5038541722      -15.4127267050       24.2819558797  TIP3      1281            0.0000000000
     28759      1481  TIP3      H2              4.3341333826      -14.8221213367       23.4526582171  TIP3      1281            0.0000000000
     28760      1482  TIP3      OH2            10.5224452617      -17.8815945839       30.8868646304  TIP3      1282            0.0000000000
     28761      1482  TIP3      H1              9.8378324003      -17.8152093100       31.5916324987  TIP3      1282            0.0000000000
     28762      1482  TIP3      H2             10.0052948367      -18.1181304033       30.1045975740  TIP3      1282            0.0000000000
     28763      1483  TIP3      OH2             3.2209371532      -14.2706527270       21.7278923751  TIP3      1283            0.0000000000
     28764      1483  TIP3      H1              2.7189052536      -14.6886811016       21.0180665306  TIP3      1283            0.0000000000
     28765      1483  TIP3      H2              4.0745400754      -14.0780811390       21.2907691322  TIP3      1283            0.0000000000
     28766      1484  TIP3      OH2            13.7107849315       -2.2180084652       37.2165024933  TIP3      1284            0.0000000000
     28767      1484  TIP3      H1             13.9788418233       -1.8363169788       36.3619393873  TIP3      1284            0.0000000000
     28768      1484  TIP3      H2             14.4361308879       -1.8998936306       37.7749623609  TIP3      1284            0.0000000000
     28769      1485  TIP3      OH2             1.3930788798       -9.7287858873       36.7906198709  TIP3      1285            0.0000000000
     28770      1485  TIP3      H1              2.1134756033       -9.5012736664       37.3976901679  TIP3      1285            0.0000000000
     28771      1485  TIP3      H2              0.6187441744       -9.6679953787       37.3924147622  TIP3      1285            0.0000000000
     28772      1486  TIP3      OH2             7.3879490883      -14.3386693139       29.5441082407  TIP3      1286            0.0000000000
     28773      1486  TIP3      H1              7.9878776272      -14.8727772705       29.0100029794  TIP3      1286            0.0000000000
     28774      1486  TIP3      H2              7.2416976465      -14.8886304695       30.3250478721  TIP3      1286            0.0000000000
     28775      1487  TIP3      OH2             2.3930957144      -18.2008532965       25.9957495541  TIP3      1287            0.0000000000
     28776      1487  TIP3      H1              2.0805089136      -19.1207016187       25.9679837752  TIP3      1287            0.0000000000
     28777      1487  TIP3      H2              3.1796793812      -18.2569458657       25.4332040871  TIP3      1287            0.0000000000
     28778      1488  TIP3      OH2             6.0277671539      -16.0117627972       31.9576860093  TIP3      1288            0.0000000000
     28779      1488  TIP3      H1              5.2038118970      -15.4929774218       32.0455185038  TIP3      1288            0.0000000000
     28780      1488  TIP3      H2              6.5835599835      -15.6590303574       32.6788241976  TIP3      1288            0.0000000000
     28781      1489  TIP3      OH2             6.6410235088       -9.8458746317       23.6684227836  TIP3      1289            0.0000000000
     28782      1489  TIP3      H1              5.8069927176      -10.2247201574       23.3104785673  TIP3      1289            0.0000000000
     28783      1489  TIP3      H2              6.3812244201       -9.6309711559       24.5813247032  TIP3      1289            0.0000000000
     28784      1490  TIP3      OH2            13.8062258469      -10.5848073179       32.4585004369  TIP3      1290            0.0000000000
     28785      1490  TIP3      H1             14.3670279223      -10.1021956888       31.8243142295  TIP3      1290            0.0000000000
     28786      1490  TIP3      H2             12.9451212007      -10.5421100951       31.9956904354  TIP3      1290            0.0000000000
     28787      1491  TIP3      OH2            10.4464714800      -16.9589759887       21.9175476549  TIP3      1291            0.0000000000
     28788      1491  TIP3      H1              9.5369882846      -16.8485846191       21.6183709991  TIP3      1291            0.0000000000
     28789      1491  TIP3      H2             10.7521451744      -16.0848585563       22.1748570408  TIP3      1291            0.0000000000
     28790      1492  TIP3      OH2             8.1094794273       -9.5170037541       34.9013478773  TIP3      1292            0.0000000000
     28791      1492  TIP3      H1              7.7624298383       -9.9481882266       35.6892030437  TIP3      1292            0.0000000000
     28792      1492  TIP3      H2              7.8513884643       -8.5962424944       35.0085983759  TIP3      1292            0.0000000000
     28793      1493  TIP3      OH2            11.1997783062      -15.0273770545       23.4979346081  TIP3      1293            0.0000000000
     28794      1493  TIP3      H1             12.0867833099      -15.1963358106       23.8633267958  TIP3      1293            0.0000000000
     28795      1493  TIP3      H2             11.2678439493      -14.2207646376       22.9767787303  TIP3      1293            0.0000000000
     28796      1494  TIP3      OH2             1.7261734515      -10.3919596592       29.4558509995  TIP3      1294            0.0000000000
     28797      1494  TIP3      H1              2.4099589533      -10.4765919414       28.7632421701  TIP3      1294            0.0000000000
     28798      1494  TIP3      H2              1.7888271973      -11.2482072107       29.9157936477  TIP3      1294            0.0000000000
     28799      1495  TIP3      OH2             8.7957358899       -8.3542961901       22.7855272469  TIP3      1295            0.0000000000
     28800      1495  TIP3      H1              8.3876800656       -7.5092877804       23.0149887572  TIP3      1295            0.0000000000
     28801      1495  TIP3      H2              8.0012634358       -8.9330404901       22.8661040775  TIP3      1295            0.0000000000
     28802      1496  TIP3      OH2            -1.2855005913      -11.9924292490       34.7175154142  TIP3      1296            0.0000000000
     28803      1496  TIP3      H1             -1.1147538041      -12.4370852181       35.5703283928  TIP3      1296            0.0000000000
     28804      1496  TIP3      H2             -1.9043401136      -12.6010616675       34.2771378027  TIP3      1296            0.0000000000
     28805      1497  TIP3      OH2             5.7292027644      -12.4314064896       36.8916448426  TIP3      1297            0.0000000000
     28806      1497  TIP3      H1              5.4087620746      -12.7421430475       36.0326760401  TIP3      1297            0.0000000000
     28807      1497  TIP3      H2              6.6516827401      -12.7568108881       36.8902634098  TIP3      1297            0.0000000000
     28808      1498  TIP3      OH2            10.4167728276       -7.0948110729       34.8499400789  TIP3      1298            0.0000000000
     28809      1498  TIP3      H1              9.4916541507       -6.9171868882       34.6150738887  TIP3      1298            0.0000000000
     28810      1498  TIP3      H2             10.3826659980       -6.8010322276       35.7801926434  TIP3      1298            0.0000000000
     28811      1499  TIP3      OH2            16.0267924069      -14.8890356688       23.2400980321  TIP3      1299            0.0000000000
     28812      1499  TIP3      H1             15.5081023825      -15.2055742182       22.4778582276  TIP3      1299            0.0000000000
     28813      1499  TIP3      H2             16.1487285720      -13.9602297807       22.9526741880  TIP3      1299            0.0000000000
     28814      1500  TIP3      OH2            16.0708960922       -9.0511684876       36.0429269487  TIP3      1300            0.0000000000
     28815      1500  TIP3      H1             15.1728309174       -8.8374855754       35.6871902331  TIP3      1300            0.0000000000
     28816      1500  TIP3      H2             16.6136923272       -9.1055508708       35.2286511216  TIP3      1300            0.0000000000
     28817      1501  TIP3      OH2            14.4057437127       -6.0998739976       23.6600188418  TIP3      1301            0.0000000000
     28818      1501  TIP3      H1             14.0023684668       -6.9168331112       23.9662504766  TIP3      1301            0.0000000000
     28819      1501  TIP3      H2             14.6728815916       -6.2639287161       22.7418725269  TIP3      1301            0.0000000000
     28820      1502  TIP3      OH2            11.5803643876      -11.2723805110       30.7402148513  TIP3      1302            0.0000000000
     28821      1502  TIP3      H1             10.6399995036      -11.4818493619       30.6275320596  TIP3      1302            0.0000000000
     28822      1502  TIP3      H2             12.0128699967      -12.0293694077       30.3022884419  TIP3      1302            0.0000000000
     28823      1503  TIP3      OH2             4.0991647796       -6.9385916049       26.8471762052  TIP3      1303            0.0000000000
     28824      1503  TIP3      H1              4.6008372627       -6.1349140519       26.6319409264  TIP3      1303            0.0000000000
     28825      1503  TIP3      H2              3.2297347711       -6.7071777653       26.4940721442  TIP3      1303            0.0000000000
     28826      1504  TIP3      OH2             5.5476292080       -9.2809409462       26.4369913334  TIP3      1304            0.0000000000
     28827      1504  TIP3      H1              5.2102954816       -8.3619717949       26.4429979142  TIP3      1304            0.0000000000
     28828      1504  TIP3      H2              4.7871615219       -9.7655877475       26.8063230664  TIP3      1304            0.0000000000
     28829      1505  TIP3      OH2             5.9621962967       -5.0882690232       32.7723096000  TIP3      1305            0.0000000000
     28830      1505  TIP3      H1              6.4269817100       -4.2849323652       32.4816768126  TIP3      1305            0.0000000000
     28831      1505  TIP3      H2              6.5813153215       -5.4325460245       33.4435149846  TIP3      1305            0.0000000000
     28832      1506  TIP3      OH2             4.1851945233       -4.3011860785       25.9587709877  TIP3      1306            0.0000000000
     28833      1506  TIP3      H1              3.2211911052       -4.1335412838       26.0291475340  TIP3      1306            0.0000000000
     28834      1506  TIP3      H2              4.5539471892       -3.4431090531       26.2229561521  TIP3      1306            0.0000000000
     28835      1507  TIP3      OH2             9.4810919147       -9.0981761893       32.3841414646  TIP3      1307            0.0000000000
     28836      1507  TIP3      H1              9.1647017721       -9.2860480361       33.2924477494  TIP3      1307            0.0000000000
     28837      1507  TIP3      H2             10.1273119957       -9.8034859650       32.2187353028  TIP3      1307            0.0000000000
     28838      1508  TIP3      OH2            11.7520243665       -8.0779167547       21.4508669088  TIP3      1308            0.0000000000
     28839      1508  TIP3      H1             12.1226278597       -8.4974335602       22.2527013527  TIP3      1308            0.0000000000
     28840      1508  TIP3      H2             10.8070481547       -8.1892223795       21.6284031366  TIP3      1308            0.0000000000
     28841      1509  TIP3      OH2            12.3025974663       -4.5098390771       34.8784219478  TIP3      1309            0.0000000000
     28842      1509  TIP3      H1             11.6144547353       -5.0046725068       34.3957780536  TIP3      1309            0.0000000000
     28843      1509  TIP3      H2             12.4893256257       -3.8117545542       34.2133390820  TIP3      1309            0.0000000000
     28844      1510  TIP3      OH2             0.3666942704      -17.2563862721       34.2644481665  TIP3      1310            0.0000000000
     28845      1510  TIP3      H1             -0.5395902086      -16.9048442272       34.2452688244  TIP3      1310            0.0000000000
     28846      1510  TIP3      H2              0.2556007831      -18.1016698997       34.7274429563  TIP3      1310            0.0000000000
     28847      1511  TIP3      OH2            12.6152388204       -9.3784231827       23.7465722427  TIP3      1311            0.0000000000
     28848      1511  TIP3      H1             12.3778992724      -10.1719111739       24.2709122988  TIP3      1311            0.0000000000
     28849      1511  TIP3      H2             13.5840161972       -9.3364693867       23.8653990571  TIP3      1311            0.0000000000
     28850      1512  TIP3      OH2            -0.0199123462       -5.4749448949       32.6920294360  TIP3      1312            0.0000000000
     28851      1512  TIP3      H1              0.2851822147       -6.3946480921       32.6993434264  TIP3      1312            0.0000000000
     28852      1512  TIP3      H2              0.2417750870       -5.1822308917       33.5716047498  TIP3      1312            0.0000000000
     28853      1513  TIP3      OH2             1.2149717011      -10.1564365725       22.8443712316  TIP3      1313            0.0000000000
     28854      1513  TIP3      H1              0.5721833365       -9.7666525254       23.4709035329  TIP3      1313            0.0000000000
     28855      1513  TIP3      H2              1.7894280070       -9.4024573106       22.6363392398  TIP3      1313            0.0000000000
     28856      1514  TIP3      OH2             9.0999521109      -17.4834898031       33.2299495914  TIP3      1314            0.0000000000
     28857      1514  TIP3      H1              9.8150662977      -17.4231701041       33.8724654109  TIP3      1314            0.0000000000
     28858      1514  TIP3      H2              8.7162078992      -18.3595659651       33.4346743408  TIP3      1314            0.0000000000
     28859      1515  TIP3      OH2             9.7984752811      -17.8486520424       24.3622633334  TIP3      1315            0.0000000000
     28860      1515  TIP3      H1             10.0554604687      -17.4960249080       23.4799172810  TIP3      1315            0.0000000000
     28861      1515  TIP3      H2             10.4334115480      -17.4050542472       24.9320292736  TIP3      1315            0.0000000000
     28862      1516  TIP3      OH2             7.0476240559      -16.1648148421       25.1468749560  TIP3      1316            0.0000000000
     28863      1516  TIP3      H1              7.8404000206      -15.5859592082       25.1578164263  TIP3      1316            0.0000000000
     28864      1516  TIP3      H2              6.8002654672      -16.2992433572       26.0805507981  TIP3      1316            0.0000000000
     28865      1517  TIP3      OH2             7.6286379591      -15.1349208101       34.3281804090  TIP3      1317            0.0000000000
     28866      1517  TIP3      H1              7.7017143939      -14.5799753711       35.1268754074  TIP3      1317            0.0000000000
     28867      1517  TIP3      H2              8.2898854816      -15.8317242049       34.4220740524  TIP3      1317            0.0000000000
     28868      1518  TIP3      OH2             7.9092234713      -19.1021416323       26.0094898211  TIP3      1318            0.0000000000
     28869      1518  TIP3      H1              7.5900776725      -18.4458981059       26.6584220246  TIP3      1318            0.0000000000
     28870      1518  TIP3      H2              8.6058359863      -18.5564845939       25.5576046767  TIP3      1318            0.0000000000
     28871      1519  TIP3      OH2             4.8943225782       -4.6381673620       23.1718825284  TIP3      1319            0.0000000000
     28872      1519  TIP3      H1              5.0566397480       -3.8642160940       22.6210845482  TIP3      1319            0.0000000000
     28873      1519  TIP3      H2              4.6484622345       -4.3345243082       24.0558060707  TIP3      1319            0.0000000000
     28874      1520  TIP3      OH2             3.5870549146      -18.0293771012       22.7758664428  TIP3      1320            0.0000000000
     28875      1520  TIP3      H1              3.5047586167      -17.1019683200       23.0638294288  TIP3      1320            0.0000000000
     28876      1520  TIP3      H2              4.5060171261      -18.2111508066       23.0386629401  TIP3      1320            0.0000000000
     28877      1521  TIP3      OH2            13.8018932174      -17.2721516533       35.1711569322  TIP3      1321            0.0000000000
     28878      1521  TIP3      H1             12.8761167484      -16.9521112550       35.0424026835  TIP3      1321            0.0000000000
     28879      1521  TIP3      H2             14.1045274769      -17.2831106809       34.2476815052  TIP3      1321            0.0000000000
     28880      1522  TIP3      OH2            12.4202435524      -13.4815083042       29.1733782369  TIP3      1322            0.0000000000
     28881      1522  TIP3      H1             11.5940669250      -13.9257067513       28.9013662428  TIP3      1322            0.0000000000
     28882      1522  TIP3      H2             12.8910523688      -14.1666768692       29.7002100193  TIP3      1322            0.0000000000
     28883      1523  TIP3      OH2            13.4701372519       -4.2285717777       30.8559462036  TIP3      1323            0.0000000000
     28884      1523  TIP3      H1             13.3745058416       -3.5439795412       30.1634878621  TIP3      1323            0.0000000000
     28885      1523  TIP3      H2             14.4292401429       -4.1729484494       31.0361596165  TIP3      1323            0.0000000000
     28886      1524  TIP3      OH2             0.9736051139      -20.0994404481       29.6618852996  TIP3      1324            0.0000000000
     28887      1524  TIP3      H1              0.7814020949      -20.0828018577       28.6972073124  TIP3      1324            0.0000000000
     28888      1524  TIP3      H2              0.5601091068      -20.9530382487       29.9098016709  TIP3      1324            0.0000000000
     28889      1525  TIP3      OH2            -0.0879492425       -6.1623698219       25.8278992401  TIP3      1325            0.0000000000
     28890      1525  TIP3      H1             -0.9396445699       -5.7136148446       25.7532231657  TIP3      1325            0.0000000000
     28891      1525  TIP3      H2              0.4022196216       -5.7251190506       25.1149244663  TIP3      1325            0.0000000000
     28892      1526  TIP3      OH2            -0.8680096974       -3.5285418911       37.0834207224  TIP3      1326            0.0000000000
     28893      1526  TIP3      H1             -0.2636539485       -3.7257588090       37.8234470603  TIP3      1326            0.0000000000
     28894      1526  TIP3      H2             -1.2654535124       -4.3980391446       36.9034816455  TIP3      1326            0.0000000000
     28895      1527  TIP3      OH2             3.8372003820       -4.5911676560       38.6975584625  TIP3      1327            0.0000000000
     28896      1527  TIP3      H1              4.5651674200       -5.1352207614       39.0222361057  TIP3      1327            0.0000000000
     28897      1527  TIP3      H2              3.7855735475       -4.8807104599       37.7640446768  TIP3      1327            0.0000000000
     28898      1528  TIP3      OH2            10.3157950980       -6.2230586807       37.4443122983  TIP3      1328            0.0000000000
     28899      1528  TIP3      H1             10.0022591072       -7.1111820238       37.7181193260  TIP3      1328            0.0000000000
     28900      1528  TIP3      H2             11.0858759005       -6.1051990199       38.0350497668  TIP3      1328            0.0000000000
     28901      1529  TIP3      OH2            -0.9576958712       -9.7554069032       38.0819879196  TIP3      1329            0.0000000000
     28902      1529  TIP3      H1             -0.7913621485      -10.6667297747       37.7807415043  TIP3      1329            0.0000000000
     28903      1529  TIP3      H2             -1.6964971266       -9.4970077889       37.5063854512  TIP3      1329            0.0000000000
     28904      1530  TIP3      OH2             5.7603610815       -9.7689822059       37.4659840385  TIP3      1330            0.0000000000
     28905      1530  TIP3      H1              5.4260706238       -9.4529877486       36.6027844090  TIP3      1330            0.0000000000
     28906      1530  TIP3      H2              5.8345385046      -10.7461362820       37.3561531667  TIP3      1330            0.0000000000
     28907      1531  TIP3      OH2            11.4570510826       -9.9073324687       34.8592718082  TIP3      1331            0.0000000000
     28908      1531  TIP3      H1             12.2454101347       -9.3253496787       34.7977618896  TIP3      1331            0.0000000000
     28909      1531  TIP3      H2             10.7580907379       -9.2385301794       34.8941705963  TIP3      1331            0.0000000000
     28910      1532  TIP3      OH2            -0.0322253963      -12.5290400480       37.4613277840  TIP3      1332            0.0000000000
     28911      1532  TIP3      H1              0.3839485500      -13.3926312632       37.3711793415  TIP3      1332            0.0000000000
     28912      1532  TIP3      H2             -0.2669198198      -12.5234791165       38.4033281695  TIP3      1332            0.0000000000
     28913      1533  TIP3      OH2             4.6280311464      -11.4174069223       22.5454280164  TIP3      1333            0.0000000000
     28914      1533  TIP3      H1              4.1010401807      -11.9280115944       23.1627610247  TIP3      1333            0.0000000000
     28915      1533  TIP3      H2              4.9268920264      -12.0676709133       21.8673655123  TIP3      1333            0.0000000000
     28916      1534  TIP3      OH2             3.8633516209      -13.5860815261       34.8141477306  TIP3      1334            0.0000000000
     28917      1534  TIP3      H1              3.2675341353      -12.8642814992       35.0707509293  TIP3      1334            0.0000000000
     28918      1534  TIP3      H2              4.2622032872      -13.2178316789       34.0072934363  TIP3      1334            0.0000000000
     28919      1535  TIP3      OH2             5.6736227779      -13.1931306702       20.7299913384  TIP3      1335            0.0000000000
     28920      1535  TIP3      H1              5.5258330420      -13.3324461307       19.7821206775  TIP3      1335            0.0000000000
     28921      1535  TIP3      H2              6.6383372414      -13.0823081578       20.7688075332  TIP3      1335            0.0000000000
     28922      1536  TIP3      OH2             8.9386067127      -11.0146466606       38.1536601081  TIP3      1336            0.0000000000
     28923      1536  TIP3      H1              9.8950365161      -11.0286432435       38.0279498751  TIP3      1336            0.0000000000
     28924      1536  TIP3      H2              8.7670017302      -11.7823978460       38.7221667740  TIP3      1336            0.0000000000
     28925      1537  TIP3      OH2             4.2700027083      -16.2078161381       35.8713869281  TIP3      1337            0.0000000000
     28926      1537  TIP3      H1              4.3868337645      -16.9159369293       35.2114159109  TIP3      1337            0.0000000000
     28927      1537  TIP3      H2              4.2253892018      -15.3963036720       35.3230989232  TIP3      1337            0.0000000000
     28928      1538  TIP3      OH2             4.6745758025      -17.8249583124       33.4272314450  TIP3      1338            0.0000000000
     28929      1538  TIP3      H1              5.1823096215      -17.3594853360       32.7201348584  TIP3      1338            0.0000000000
     28930      1538  TIP3      H2              3.7806161218      -17.9022234555       33.0219678335  TIP3      1338            0.0000000000
     28931      1539  TIP3      OH2             6.2120149824      -12.3323034344       33.6675562748  TIP3      1339            0.0000000000
     28932      1539  TIP3      H1              6.9665490160      -12.4996547612       33.0973444166  TIP3      1339            0.0000000000
     28933      1539  TIP3      H2              5.8464417485      -11.4995997093       33.3309096130  TIP3      1339            0.0000000000
     28934      1540  TIP3      OH2            10.6069136912      -14.5848621847       38.6282965783  TIP3      1340            0.0000000000
     28935      1540  TIP3      H1             10.8432681935      -15.5193028911       38.5390325571  TIP3      1340            0.0000000000
     28936      1540  TIP3      H2             11.4712049826      -14.1409400448       38.6626667308  TIP3      1340            0.0000000000
     28937      1541  TIP3      OH2            11.9560266888      -11.7932495876       36.7964826618  TIP3      1341            0.0000000000
     28938      1541  TIP3      H1             11.7019522340      -11.0707091305       36.1809096059  TIP3      1341            0.0000000000
     28939      1541  TIP3      H2             12.9200430906      -11.8215484084       36.6138872720  TIP3      1341            0.0000000000
     28940      1542  TIP3      OH2             2.7325392474      -14.9561095461       37.7919308104  TIP3      1342            0.0000000000
     28941      1542  TIP3      H1              1.9629968770      -15.5336078199       37.6252444640  TIP3      1342            0.0000000000
     28942      1542  TIP3      H2              3.3859371435      -15.3259739791       37.1701185472  TIP3      1342            0.0000000000
     28943      1543  TIP3      OH2             5.4639117511      -20.3899084200       33.8128792369  TIP3      1343            0.0000000000
     28944      1543  TIP3      H1              5.2772172899      -19.4258688686       33.7175363415  TIP3      1343            0.0000000000
     28945      1543  TIP3      H2              4.7139822407      -20.7558434989       33.3122727371  TIP3      1343            0.0000000000
     28946      1544  TIP3      OH2             6.7324106167      -16.0586928041       37.4446846278  TIP3      1344            0.0000000000
     28947      1544  TIP3      H1              6.4169908507      -16.2922895591       38.3394776776  TIP3      1344            0.0000000000
     28948      1544  TIP3      H2              5.9518665567      -16.2622003034       36.9022032687  TIP3      1344            0.0000000000
     28949      1545  TIP3      OH2             9.4547324592      -16.9149669690       36.5348461237  TIP3      1345            0.0000000000
     28950      1545  TIP3      H1              8.4896785341      -16.8631480418       36.6424008373  TIP3      1345            0.0000000000
     28951      1545  TIP3      H2              9.7180001966      -17.5558465384       37.2233011032  TIP3      1345            0.0000000000
     28952      1546  TIP3      OH2            11.0350842445      -18.2963999378       38.4320562027  TIP3      1346            0.0000000000
     28953      1546  TIP3      H1             10.9884671626      -19.2744919518       38.4636535120  TIP3      1346            0.0000000000
     28954      1546  TIP3      H2             10.7880842912      -18.0039261957       39.3316077256  TIP3      1346            0.0000000000
     28955      1547  TIP3      OH2             0.8053327629      -17.0182438230       37.5493806630  TIP3      1347            0.0000000000
     28956      1547  TIP3      H1              1.0570012636      -17.7541623760       36.9642974339  TIP3      1347            0.0000000000
     28957      1547  TIP3      H2              0.7188137444      -17.4663028362       38.4136465807  TIP3      1347            0.0000000000
     28958      1548  TIP3      OH2             5.6772875299      -20.9933645287       36.5148957870  TIP3      1348            0.0000000000
     28959      1548  TIP3      H1              6.3560380584      -21.6975749893       36.4992051164  TIP3      1348            0.0000000000
     28960      1548  TIP3      H2              5.5616414563      -20.8537791595       35.5544879630  TIP3      1348            0.0000000000
     28961      1549  TIP3      OH2             6.0390359266      -19.3820703491       38.6332836377  TIP3      1349            0.0000000000
     28962      1549  TIP3      H1              5.8651876410      -19.8878163538       37.8007460167  TIP3      1349            0.0000000000
     28963      1549  TIP3      H2              5.4400119976      -18.6171650772       38.5322496791  TIP3      1349            0.0000000000
     28964      1550  TIP3      OH2            -2.1708541618       -2.4992492730       26.2542586077  TIP3      1350            0.0000000000
     28965      1550  TIP3      H1             -2.8758908343       -2.9878460559       25.7704182941  TIP3      1350            0.0000000000
     28966      1550  TIP3      H2             -1.8811970569       -3.1601083693       26.9099816790  TIP3      1350            0.0000000000
     28967      1551  TIP3      OH2            -1.3393727947       -4.3706928888       28.1188317994  TIP3      1351            0.0000000000
     28968      1551  TIP3      H1             -1.6893339533       -5.2516319751       28.3156610006  TIP3      1351            0.0000000000
     28969      1551  TIP3      H2             -1.1104598193       -4.0429997733       29.0024512175  TIP3      1351            0.0000000000
     28970      1552  TIP3      OH2            16.2312899760       -3.5825407621       31.0334102610  TIP3      1352            0.0000000000
     28971      1552  TIP3      H1             16.2087809873       -3.4343653051       31.9991788646  TIP3      1352            0.0000000000
     28972      1552  TIP3      H2             16.9065013265       -2.9565891760       30.7825748438  TIP3      1352            0.0000000000
     28973      1553  TIP3      OH2            15.7772040804       -3.9825166517       33.9842193286  TIP3      1353            0.0000000000
     28974      1553  TIP3      H1             15.3020226105       -4.7499772648       33.6106676350  TIP3      1353            0.0000000000
     28975      1553  TIP3      H2             16.2598549500       -4.4251903940       34.7022516589  TIP3      1353            0.0000000000
     28976      1554  TIP3      OH2            14.2170844733       -8.2584830961       38.6658423035  TIP3      1354            0.0000000000
     28977      1554  TIP3      H1             13.3119512555       -8.2873219896       39.0295999541  TIP3      1354            0.0000000000
     28978      1554  TIP3      H2             14.5922674593       -7.4553948775       39.0763871197  TIP3      1354            0.0000000000
     28979      1555  TIP3      OH2            15.5247709106       -9.9539463111       24.1119203531  TIP3      1355            0.0000000000
     28980      1555  TIP3      H1             16.3896902752       -9.5372327977       24.2681934980  TIP3      1355            0.0000000000
     28981      1555  TIP3      H2             15.5323044938      -10.6771408466       24.7727339525  TIP3      1355            0.0000000000
     28982      1556  TIP3      OH2            15.9174419222      -11.8654885838       25.9539220665  TIP3      1356            0.0000000000
     28983      1556  TIP3      H1             15.1535157722      -12.3458345456       26.3426824673  TIP3      1356            0.0000000000
     28984      1556  TIP3      H2             16.4848588064      -11.7164706984       26.7367574997  TIP3      1356            0.0000000000
     28985      1557  TIP3      OH2            15.6530450363       -9.1608911715       30.9659738931  TIP3      1357            0.0000000000
     28986      1557  TIP3      H1             16.4666803440       -9.5399392240       30.5843261293  TIP3      1357            0.0000000000
     28987      1557  TIP3      H2             15.7938150255       -8.2096933462       30.7924584129  TIP3      1357            0.0000000000
     28988      1558  TIP3      OH2            14.2080978921       -6.2625855109       33.2382590407  TIP3      1358            0.0000000000
     28989      1558  TIP3      H1             13.5220367392       -5.9122356687       33.8235630210  TIP3      1358            0.0000000000
     28990      1558  TIP3      H2             13.6574029209       -6.6592911827       32.5310476179  TIP3      1358            0.0000000000
     28991      1559  TIP3      OH2            16.2518845372      -12.0033440234       22.3573197688  TIP3      1359            0.0000000000
     28992      1559  TIP3      H1             15.6603454917      -11.7241767096       21.6363046289  TIP3      1359            0.0000000000
     28993      1559  TIP3      H2             16.1012075524      -11.3100626891       23.0209481894  TIP3      1359            0.0000000000
     28994      1560  TIP3      OH2            13.7174620101      -13.3850159557       26.5344923237  TIP3      1360            0.0000000000
     28995      1560  TIP3      H1             13.5643360625      -14.3400056720       26.5199817863  TIP3      1360            0.0000000000
     28996      1560  TIP3      H2             13.3826427914      -13.1600834144       27.4220748890  TIP3      1360            0.0000000000
     28997      1561  TIP3      OH2            -1.2777917283      -11.2951991106       30.6101141627  TIP3      1361            0.0000000000
     28998      1561  TIP3      H1             -1.1001370112      -11.3784313469       29.6476699610  TIP3      1361            0.0000000000
     28999      1561  TIP3      H2             -0.3848966680      -11.4741343977       30.9640763709  TIP3      1361            0.0000000000
     29000      1562  TIP3      OH2            14.5819593419      -11.4190441287       36.2439551163  TIP3      1362            0.0000000000
     29001      1562  TIP3      H1             15.1913391093      -12.1731614624       36.3754157333  TIP3      1362            0.0000000000
     29002      1562  TIP3      H2             15.1826857579      -10.6424667718       36.2425456653  TIP3      1362            0.0000000000
     29003      1563  TIP3      OH2            16.0729361720      -13.5371877578       36.8960735786  TIP3      1363            0.0000000000
     29004      1563  TIP3      H1             15.1924701527      -13.9380352909       36.7376276881  TIP3      1363            0.0000000000
     29005      1563  TIP3      H2             16.6489849122      -14.3158714481       36.8114861557  TIP3      1363            0.0000000000
     29006      1564  TIP3      OH2            13.7878028903      -17.4620287251       19.9702261804  TIP3      1364            0.0000000000
     29007      1564  TIP3      H1             14.3675789677      -17.7348445152       20.6872574479  TIP3      1364            0.0000000000
     29008      1564  TIP3      H2             12.9055391122      -17.7736974976       20.2202883898  TIP3      1364            0.0000000000
     29009      1565  TIP3      OH2            13.3726961898      -15.7939389060       25.0420307434  TIP3      1365            0.0000000000
     29010      1565  TIP3      H1             13.6624298457      -16.7266361446       25.1251255712  TIP3      1365            0.0000000000
     29011      1565  TIP3      H2             14.1747762746      -15.4046246359       24.6643495030  TIP3      1365            0.0000000000
     29012      1566  TIP3      OH2            14.0200466989      -15.2500321065       30.4523539444  TIP3      1366            0.0000000000
     29013      1566  TIP3      H1             14.9809462283      -15.0245298059       30.4385007313  TIP3      1366            0.0000000000
     29014      1566  TIP3      H2             13.8350594357      -15.1147399367       31.3931264512  TIP3      1366            0.0000000000
     29015      1567  TIP3      OH2            14.0903976984      -14.5311233153       33.2408446541  TIP3      1367            0.0000000000
     29016      1567  TIP3      H1             13.2047137499      -14.2450922620       33.5524262644  TIP3      1367            0.0000000000
     29017      1567  TIP3      H2             14.5212870726      -13.6734298859       33.0121693476  TIP3      1367            0.0000000000
     29018      1568  TIP3      OH2            -1.6582744166      -15.9922814023       36.7727065570  TIP3      1368            0.0000000000
     29019      1568  TIP3      H1             -0.7212392406      -16.2088702070       36.9577005911  TIP3      1368            0.0000000000
     29020      1568  TIP3      H2             -2.1172454558      -16.8189845968       37.0373034297  TIP3      1368            0.0000000000
     29021      1569  TIP3      OH2            16.3584215163      -20.4732404481       38.5699372510  TIP3      1369            0.0000000000
     29022      1569  TIP3      H1             16.7111467636      -21.1466061048       37.9537878193  TIP3      1369            0.0000000000
     29023      1569  TIP3      H2             16.4613924500      -19.6614846189       38.0358840949  TIP3      1369            0.0000000000
     29024      1570  TIP3      OH2            14.0926662163      -18.5607120401       25.0006393285  TIP3      1370            0.0000000000
     29025      1570  TIP3      H1             14.2392605329      -18.9221971291       25.9073946690  TIP3      1370            0.0000000000
     29026      1570  TIP3      H2             13.3952236888      -19.1424102284       24.6192334225  TIP3      1370            0.0000000000
     29027      1571  TIP3      OH2            -0.4593428797      -17.7040092474       29.6147158265  TIP3      1371            0.0000000000
     29028      1571  TIP3      H1             -0.0016084667      -18.5326175386       29.8685409920  TIP3      1371            0.0000000000
     29029      1571  TIP3      H2              0.0936198637      -17.0150686184       30.0048233234  TIP3      1371            0.0000000000
     29030      1572  TIP3      OH2            -2.1790693054      -14.7019407384       30.6490001761  TIP3      1372            0.0000000000
     29031      1572  TIP3      H1             -1.6146335093      -14.9548227503       29.8901721151  TIP3      1372            0.0000000000
     29032      1572  TIP3      H2             -1.7093342296      -13.8999250452       30.9193183730  TIP3      1372            0.0000000000
     29033      1573  TIP3      OH2            15.8827054245      -18.3788627217       36.9254026775  TIP3      1373            0.0000000000
     29034      1573  TIP3      H1             14.9483424114      -18.0999585142       36.8680913330  TIP3      1373            0.0000000000
     29035      1573  TIP3      H2             15.9119990448      -18.9380345263       36.1327439119  TIP3      1373            0.0000000000
     29036      1574  TIP3      OH2            15.9183440854      -18.5345828177       21.6326608342  TIP3      1374            0.0000000000
     29037      1574  TIP3      H1             16.3465196899      -19.1609799534       21.0300984125  TIP3      1374            0.0000000000
     29038      1574  TIP3      H2             16.5545528645      -17.7961406618       21.6185261264  TIP3      1374            0.0000000000
     29039      1575  TIP3      OH2            -1.8255988928      -18.4166848271       24.7145386227  TIP3      1375            0.0000000000
     29040      1575  TIP3      H1             -2.7729512900      -18.2664770290       24.5847606206  TIP3      1375            0.0000000000
     29041      1575  TIP3      H2             -1.4068689120      -17.9443210969       23.9796924294  TIP3      1375            0.0000000000
     29042      1576  TIP3      OH2            12.9307519983       -3.5129137418       26.6578490813  TIP3      1376            0.0000000000
     29043      1576  TIP3      H1             13.6021429507       -3.7873700341       26.0042453121  TIP3      1376            0.0000000000
     29044      1576  TIP3      H2             13.4268177784       -2.9822440445       27.2985781617  TIP3      1376            0.0000000000
     29045      1577  TIP3      OH2            -1.8656145593      -19.7950368578       33.0161386934  TIP3      1377            0.0000000000
     29046      1577  TIP3      H1             -2.5323968395      -19.9841391437       33.6993745863  TIP3      1377            0.0000000000
     29047      1577  TIP3      H2             -2.3225801556      -19.1177241857       32.4773776589  TIP3      1377            0.0000000000
     29048      1578  TIP3      OH2             0.3782166430       -6.5992863922       37.1804921248  TIP3      1378            0.0000000000
     29049      1578  TIP3      H1             -0.4579916568       -6.3765552936       36.7378627418  TIP3      1378            0.0000000000
     29050      1578  TIP3      H2              0.1064697003       -6.6683617780       38.0986604292  TIP3      1378            0.0000000000
     29051      1579  TIP3      OH2             3.2746348477       -5.5823979145       33.4614042513  TIP3      1379            0.0000000000
     29052      1579  TIP3      H1              2.9467983038       -4.7153309848       33.1872166191  TIP3      1379            0.0000000000
     29053      1579  TIP3      H2              4.2011071969       -5.5010382556       33.1547689730  TIP3      1379            0.0000000000
     29054      1580  TIP3      OH2             7.5948875484       -4.1623289065       36.3593213519  TIP3      1380            0.0000000000
     29055      1580  TIP3      H1              7.7363445799       -4.5251809192       37.2628132963  TIP3      1380            0.0000000000
     29056      1580  TIP3      H2              8.4972725833       -3.8571807314       36.1207187658  TIP3      1380            0.0000000000
     29057      1581  TIP3      OH2             9.8828690702       -2.8954630417       35.6743610774  TIP3      1381            0.0000000000
     29058      1581  TIP3      H1             10.6141203953       -3.4780496130       35.4362311309  TIP3      1381            0.0000000000
     29059      1581  TIP3      H2             10.2572667046       -2.4541123135       36.4670943238  TIP3      1381            0.0000000000
     29060      1582  TIP3      OH2            14.9008992468      -20.2768518747       34.7856051109  TIP3      1382            0.0000000000
     29061      1582  TIP3      H1             14.0732432270      -19.9807239660       34.3697606891  TIP3      1382            0.0000000000
     29062      1582  TIP3      H2             15.0736026758      -21.0940352693       34.2646808882  TIP3      1382            0.0000000000
     29063      1583  TIP3      OH2             0.6989602502       -2.3506225141       33.4517560436  TIP3      1383            0.0000000000
     29064      1583  TIP3      H1             -0.0325459515       -1.8452382042       33.0599834825  TIP3      1383            0.0000000000
     29065      1583  TIP3      H2              0.3889352522       -2.5399840931       34.3486096758  TIP3      1383            0.0000000000
     29066      1584  TIP3      OH2             3.1677034079       -2.7722037579       32.5263927691  TIP3      1384            0.0000000000
     29067      1584  TIP3      H1              2.2750068138       -2.6292763212       32.9215647592  TIP3      1384            0.0000000000
     29068      1584  TIP3      H2              3.1127893567       -2.1827796639       31.7512725225  TIP3      1384            0.0000000000
     29069      1585  TIP3      OH2             7.8728385056       -2.8638972367       31.6977961014  TIP3      1385            0.0000000000
     29070      1585  TIP3      H1              7.4136039727       -2.3026545738       31.0510114094  TIP3      1385            0.0000000000
     29071      1585  TIP3      H2              8.0052269703       -2.2285530001       32.4338040118  TIP3      1385            0.0000000000
     29072      1586  TIP3      OH2            10.1598547695       -4.0526557104       32.7305081957  TIP3      1386            0.0000000000
     29073      1586  TIP3      H1              9.3086736301       -3.7731113942       32.3556954994  TIP3      1386            0.0000000000
     29074      1586  TIP3      H2             10.6483995969       -3.2168916955       32.6352932688  TIP3      1386            0.0000000000
     29075      1587  TIP3      OH2            12.7503405520       -2.4768226376       32.9471472625  TIP3      1387            0.0000000000
     29076      1587  TIP3      H1             12.6943404840       -1.5181688715       32.7167535567  TIP3      1387            0.0000000000
     29077      1587  TIP3      H2             12.9605737129       -2.8538200833       32.0696705240  TIP3      1387            0.0000000000
     29078      1588  TIP3      OH2             0.1610427726       -3.7002115174       30.3974633425  TIP3      1388            0.0000000000
     29079      1588  TIP3      H1              0.0758669437       -4.1588094720       31.2598637722  TIP3      1388            0.0000000000
     29080      1588  TIP3      H2              0.9748446252       -4.0809270118       30.0086844920  TIP3      1388            0.0000000000
     29081      1589  TIP3      OH2             2.2348727367       -4.9898486473       29.0518868183  TIP3      1389            0.0000000000
     29082      1589  TIP3      H1              2.0719313963       -5.9235065570       29.2843730682  TIP3      1389            0.0000000000
     29083      1589  TIP3      H2              3.0911195317       -4.8330339596       29.5020323671  TIP3      1389            0.0000000000
     29084      1590  TIP3      OH2             4.8414550013       -4.4992405936       29.9301542917  TIP3      1390            0.0000000000
     29085      1590  TIP3      H1              4.9927141721       -5.4262841294       29.6649862485  TIP3      1390            0.0000000000
     29086      1590  TIP3      H2              4.8837220938       -4.5601648215       30.8957590593  TIP3      1390            0.0000000000
     29087      1591  TIP3      OH2             8.2882831602      -18.8541960223       29.0664838703  TIP3      1391            0.0000000000
     29088      1591  TIP3      H1              7.6130420367      -19.4941042874       29.3477286014  TIP3      1391            0.0000000000
     29089      1591  TIP3      H2              8.8368896495      -19.3913876830       28.4848343654  TIP3      1391            0.0000000000
     29090      1592  TIP3      OH2            13.4367838372      -20.8343216626       29.1016761865  TIP3      1392            0.0000000000
     29091      1592  TIP3      H1             14.0371665998      -20.2047814724       28.6363058334  TIP3      1392            0.0000000000
     29092      1592  TIP3      H2             12.5534445123      -20.4557508352       28.9019751780  TIP3      1392            0.0000000000
     29093      1593  TIP3      OH2            15.0892358724      -19.5559952473       27.3705831345  TIP3      1393            0.0000000000
     29094      1593  TIP3      H1             15.8018408973      -20.1309268653       27.0261021055  TIP3      1393            0.0000000000
     29095      1593  TIP3      H2             15.5882282403      -18.7190496854       27.5386530962  TIP3      1393            0.0000000000
     29096      1594  TIP3      OH2             0.6547262048      -20.2384014148       26.9362781026  TIP3      1394            0.0000000000
     29097      1594  TIP3      H1             -0.1363596329      -20.4210895372       26.3925014678  TIP3      1394            0.0000000000
     29098      1594  TIP3      H2              1.1229677385      -21.0886842902       26.8448722463  TIP3      1394            0.0000000000
     29099      1595  TIP3      OH2            -0.5550783281      -20.4620788222       22.6444345531  TIP3      1395            0.0000000000
     29100      1595  TIP3      H1             -0.1408525992      -19.7998464362       22.0778604552  TIP3      1395            0.0000000000
     29101      1595  TIP3      H2             -1.1732323879      -19.9291113527       23.1765718055  TIP3      1395            0.0000000000
     29102      1596  TIP3      OH2             5.1252844869      -20.3267758365       26.6971513644  TIP3      1396            0.0000000000
     29103      1596  TIP3      H1              6.0164802487      -19.9390024459       26.6223075954  TIP3      1396            0.0000000000
     29104      1596  TIP3      H2              5.0956791318      -20.5195042670       27.6332071182  TIP3      1396            0.0000000000
     29105      1597  TIP3      OH2            10.8576496950      -20.2872043052       28.3216288422  TIP3      1397            0.0000000000
     29106      1597  TIP3      H1             10.7989605576      -20.1693695277       27.3657397029  TIP3      1397            0.0000000000
     29107      1597  TIP3      H2             10.4624182772      -21.1839197666       28.4562087347  TIP3      1397            0.0000000000
     29108      1598  TIP3      OH2            12.1225597022      -20.2328058732       24.0364081744  TIP3      1398            0.0000000000
     29109      1598  TIP3      H1             11.3715402952      -19.6670610126       23.7634194596  TIP3      1398            0.0000000000
     29110      1598  TIP3      H2             11.6596831972      -21.0915390699       24.1599389258  TIP3      1398            0.0000000000
     29111      1599  TIP3      OH2            -0.6956458525       -4.5049566814       23.6587529580  TIP3      1399            0.0000000000
     29112      1599  TIP3      H1             -1.2960698156       -4.5297967803       22.9115007770  TIP3      1399            0.0000000000
     29113      1599  TIP3      H2             -0.6162142980       -3.5497779659       23.8014799761  TIP3      1399            0.0000000000
     29114      1600  TIP3      OH2             6.1708014606      -18.3016096531       23.5687327930  TIP3      1400            0.0000000000
     29115      1600  TIP3      H1              6.5760751608      -18.8569203495       24.2489017505  TIP3      1400            0.0000000000
     29116      1600  TIP3      H2              6.3837015101      -17.4310606340       23.9760217950  TIP3      1400            0.0000000000
     29117      1601  TIP3      OH2             8.2111149405       -3.2686089974       22.0137337009  TIP3      1401            0.0000000000
     29118      1601  TIP3      H1              9.1222463383       -2.9754765116       21.8042556294  TIP3      1401            0.0000000000
     29119      1601  TIP3      H2              7.9947645999       -3.6854886450       21.1800328911  TIP3      1401            0.0000000000
     29120      1602  TIP3      OH2            14.9643195408       -3.6786566632       24.6728897284  TIP3      1402            0.0000000000
     29121      1602  TIP3      H1             14.7216287213       -4.4712645084       24.1251476853  TIP3      1402            0.0000000000
     29122      1602  TIP3      H2             14.8259458403       -2.9718281300       23.9927889419  TIP3      1402            0.0000000000
     29123      1603  TIP3      OH2             0.5472732262      -19.6859848140       36.3618345350  TIP3      1403            0.0000000000
     29124      1603  TIP3      H1              0.1574220086      -20.4810629238       36.7674020143  TIP3      1403            0.0000000000
     29125      1603  TIP3      H2              1.4556042514      -19.7286804320       36.7460512204  TIP3      1403            0.0000000000
     29126      1604  TIP3      OH2             2.5479619990      -20.3027402635       38.0091358235  TIP3      1404            0.0000000000
     29127      1604  TIP3      H1              3.4405649687      -20.6401934708       37.7915578531  TIP3      1404            0.0000000000
     29128      1604  TIP3      H2              2.1738611464      -21.1106578138       38.4106536170  TIP3      1404            0.0000000000
     29129      1605  TIP3      OH2            10.9541488365      -21.0181067178       38.1602137282  TIP3      1405            0.0000000000
     29130      1605  TIP3      H1             11.0473639822      -21.4956851155       39.0071261928  TIP3      1405            0.0000000000
     29131      1605  TIP3      H2             11.8681912836      -21.0517992247       37.8164427732  TIP3      1405            0.0000000000
     29132      1606  TIP3      OH2            14.1606619205       -4.9657721757       36.7884469435  TIP3      1406            0.0000000000
     29133      1606  TIP3      H1             13.3565967812       -5.1019784143       36.2414620481  TIP3      1406            0.0000000000
     29134      1606  TIP3      H2             14.0441397511       -4.0190546669       37.0061775758  TIP3      1406            0.0000000000
     29135      1607  TIP3      OH2            28.6160206210      -11.0780182838       26.7782682250  TIP3      1407            0.0000000000
     29136      1607  TIP3      H1             28.5899695934      -10.1015019556       26.7264651306  TIP3      1407            0.0000000000
     29137      1607  TIP3      H2             27.8833496533      -11.3215872007       26.1894171031  TIP3      1407            0.0000000000
     29138      1608  TIP3      OH2            27.4605707014      -11.8359561734       30.2716360241  TIP3      1408            0.0000000000
     29139      1608  TIP3      H1             27.4421406057      -12.4856225932       30.9872652274  TIP3      1408            0.0000000000
     29140      1608  TIP3      H2             27.1098143531      -12.3446030659       29.5195315652  TIP3      1408            0.0000000000
     29141      1609  TIP3      OH2            19.8208746621      -12.1601993880       31.8107522178  TIP3      1409            0.0000000000
     29142      1609  TIP3      H1             19.8963472960      -12.8428061286       32.5121600421  TIP3      1409            0.0000000000
     29143      1609  TIP3      H2             20.5636234363      -11.5853059790       32.0450543188  TIP3      1409            0.0000000000
     29144      1610  TIP3      OH2            31.1457322897       -8.8845911935       28.5571793998  TIP3      1410            0.0000000000
     29145      1610  TIP3      H1             30.7357063359       -9.6021820455       29.0495304845  TIP3      1410            0.0000000000
     29146      1610  TIP3      H2             31.1694078397       -8.1776595383       29.2272242521  TIP3      1410            0.0000000000
     29147      1611  TIP3      OH2            20.7309600860       -7.6766405400       30.2797410013  TIP3      1411            0.0000000000
     29148      1611  TIP3      H1             20.4221812942       -8.5625426175       30.0027495689  TIP3      1411            0.0000000000
     29149      1611  TIP3      H2             21.6817523460       -7.8779057479       30.3664208549  TIP3      1411            0.0000000000
     29150      1612  TIP3      OH2            17.3998899213      -14.1443573016       25.7641824400  TIP3      1412            0.0000000000
     29151      1612  TIP3      H1             16.9313563627      -13.2863219812       25.7573558019  TIP3      1412            0.0000000000
     29152      1612  TIP3      H2             16.8098639332      -14.6813718373       25.2242100869  TIP3      1412            0.0000000000
     29153      1613  TIP3      OH2            18.0901937308      -11.9261078534       27.9568257428  TIP3      1413            0.0000000000
     29154      1613  TIP3      H1             18.3671429141      -12.7478429912       28.4016304487  TIP3      1413            0.0000000000
     29155      1613  TIP3      H2             18.7841975916      -11.8130568053       27.2946589600  TIP3      1413            0.0000000000
     29156      1614  TIP3      OH2            28.2554351684       -3.7316652583       28.7881111597  TIP3      1414            0.0000000000
     29157      1614  TIP3      H1             28.9164582876       -4.4090795544       28.4993727170  TIP3      1414            0.0000000000
     29158      1614  TIP3      H2             28.0515239338       -4.0686669017       29.6604153170  TIP3      1414            0.0000000000
     29159      1615  TIP3      OH2            25.8246661820       -9.4357037351       30.7302906354  TIP3      1415            0.0000000000
     29160      1615  TIP3      H1             26.1696796492      -10.0637048822       30.0786901669  TIP3      1415            0.0000000000
     29161      1615  TIP3      H2             26.6331317844       -9.2755096703       31.2499202433  TIP3      1415            0.0000000000
     29162      1616  TIP3      OH2            34.4737811912      -17.7817375633       31.4675195900  TIP3      1416            0.0000000000
     29163      1616  TIP3      H1             34.5969552073      -17.1781976013       32.2298718281  TIP3      1416            0.0000000000
     29164      1616  TIP3      H2             35.0229160340      -17.3368362349       30.8029739471  TIP3      1416            0.0000000000
     29165      1617  TIP3      OH2            29.0007963409      -14.9653888245       31.0572997717  TIP3      1417            0.0000000000
     29166      1617  TIP3      H1             29.1726154201      -15.9240850005       31.0630553891  TIP3      1417            0.0000000000
     29167      1617  TIP3      H2             28.8998314817      -14.8262352823       30.0961997459  TIP3      1417            0.0000000000
     29168      1618  TIP3      OH2            22.1119460066      -16.8782696817       28.2634183177  TIP3      1418            0.0000000000
     29169      1618  TIP3      H1             22.2240988377      -16.0411421121       27.7769538779  TIP3      1418            0.0000000000
     29170      1618  TIP3      H2             21.7173833966      -17.4490293842       27.5705337427  TIP3      1418            0.0000000000
     29171      1619  TIP3      OH2            29.8624399750      -16.7966104904       26.6483266629  TIP3      1419            0.0000000000
     29172      1619  TIP3      H1             30.5174638409      -17.1077899088       27.3142136329  TIP3      1419            0.0000000000
     29173      1619  TIP3      H2             30.4093562616      -16.2203617001       26.0918064352  TIP3      1419            0.0000000000
     29174      1620  TIP3      OH2            18.7409587595      -14.4670405369       29.0067591303  TIP3      1420            0.0000000000
     29175      1620  TIP3      H1             19.4020039919      -15.0155880554       29.4711777514  TIP3      1420            0.0000000000
     29176      1620  TIP3      H2             18.8510397327      -14.7805104588       28.0957766191  TIP3      1420            0.0000000000
     29177      1621  TIP3      OH2            23.8935869380      -12.9127095087       28.3467836677  TIP3      1421            0.0000000000
     29178      1621  TIP3      H1             24.5732434573      -13.4961841441       28.7298965094  TIP3      1421            0.0000000000
     29179      1621  TIP3      H2             23.3876352607      -13.5625137204       27.8193343865  TIP3      1421            0.0000000000
     29180      1622  TIP3      OH2            34.8997494753      -16.3717888514       33.7414609622  TIP3      1422            0.0000000000
     29181      1622  TIP3      H1             34.2861357113      -15.6121254788       33.6238051809  TIP3      1422            0.0000000000
     29182      1622  TIP3      H2             34.9194625686      -16.4371190903       34.7054271726  TIP3      1422            0.0000000000
     29183      1623  TIP3      OH2            21.0179979823      -17.9938904542       32.2916641795  TIP3      1423            0.0000000000
     29184      1623  TIP3      H1             20.7431237253      -17.4040888249       31.5583361702  TIP3      1423            0.0000000000
     29185      1623  TIP3      H2             20.3566089904      -17.7515931820       32.9866996116  TIP3      1423            0.0000000000
     29186      1624  TIP3      OH2            28.3256748510       -8.4936147848       25.8627802038  TIP3      1424            0.0000000000
     29187      1624  TIP3      H1             27.9894762221       -8.7631407640       25.0007260799  TIP3      1424            0.0000000000
     29188      1624  TIP3      H2             28.0092601548       -7.5661210225       25.9271650380  TIP3      1424            0.0000000000
     29189      1625  TIP3      OH2            23.5385694833      -10.3335630550       32.5496997318  TIP3      1425            0.0000000000
     29190      1625  TIP3      H1             22.8338899597       -9.6895560072       32.7716430915  TIP3      1425            0.0000000000
     29191      1625  TIP3      H2             24.2437506739       -9.7349024323       32.2571116208  TIP3      1425            0.0000000000
     29192      1626  TIP3      OH2            31.6678178261      -17.4478428935       28.6365392793  TIP3      1426            0.0000000000
     29193      1626  TIP3      H1             31.4449718917      -18.2182476725       29.1664029924  TIP3      1426            0.0000000000
     29194      1626  TIP3      H2             32.3376481732      -17.0151497090       29.1929453031  TIP3      1426            0.0000000000
     29195      1627  TIP3      OH2            20.5942768099      -16.1239629760       30.3470094707  TIP3      1427            0.0000000000
     29196      1627  TIP3      H1             21.2234757787      -15.4331699763       30.6533569585  TIP3      1427            0.0000000000
     29197      1627  TIP3      H2             21.1097063596      -16.5322221658       29.6075633704  TIP3      1427            0.0000000000
     29198      1628  TIP3      OH2            21.9842085651       -8.3242863806       33.3623363907  TIP3      1428            0.0000000000
     29199      1628  TIP3      H1             21.9347571959       -7.4078730121       33.0323567705  TIP3      1428            0.0000000000
     29200      1628  TIP3      H2             21.1052212153       -8.4072310699       33.8122744365  TIP3      1428            0.0000000000
     29201      1629  TIP3      OH2            18.0327317843       -8.7368563854       24.1602122504  TIP3      1429            0.0000000000
     29202      1629  TIP3      H1             17.8573639080       -8.4050456567       23.2534666818  TIP3      1429            0.0000000000
     29203      1629  TIP3      H2             18.1261723999       -7.8989482789       24.6426790146  TIP3      1429            0.0000000000
     29204      1630  TIP3      OH2            31.6713998038       -7.0502108024       30.9638945112  TIP3      1430            0.0000000000
     29205      1630  TIP3      H1             30.6987626855       -6.9261270956       31.0220714841  TIP3      1430            0.0000000000
     29206      1630  TIP3      H2             31.9458835661       -6.1442462936       30.7179992781  TIP3      1430            0.0000000000
     29207      1631  TIP3      OH2            31.9809371592      -18.7573083902       32.3147561052  TIP3      1431            0.0000000000
     29208      1631  TIP3      H1             31.2588461568      -18.1209467378       32.2222357553  TIP3      1431            0.0000000000
     29209      1631  TIP3      H2             32.7018187956      -18.3505091683       31.7927985616  TIP3      1431            0.0000000000
     29210      1632  TIP3      OH2            24.9608403697      -20.6429178215       29.7758216891  TIP3      1432            0.0000000000
     29211      1632  TIP3      H1             24.8173718382      -21.6064723825       29.7003321207  TIP3      1432            0.0000000000
     29212      1632  TIP3      H2             24.0830113623      -20.3374598402       30.0835626001  TIP3      1432            0.0000000000
     29213      1633  TIP3      OH2            29.9581941704       -5.2654738776       27.5449886120  TIP3      1433            0.0000000000
     29214      1633  TIP3      H1             30.3647697078       -5.9790320532       27.0149172747  TIP3      1433            0.0000000000
     29215      1633  TIP3      H2             30.3600995668       -4.4784194526       27.1158660312  TIP3      1433            0.0000000000
     29216      1634  TIP3      OH2            31.1794363207       -7.3417733648       26.0091904735  TIP3      1434            0.0000000000
     29217      1634  TIP3      H1             30.8318702931       -8.0339355239       25.4260729960  TIP3      1434            0.0000000000
     29218      1634  TIP3      H2             31.1852289882       -7.8134301580       26.8602544058  TIP3      1434            0.0000000000
     29219      1635  TIP3      OH2            32.8496413622       -8.6599892474       34.4258594660  TIP3      1435            0.0000000000
     29220      1635  TIP3      H1             32.9872573771       -9.2683011072       33.6591386282  TIP3      1435            0.0000000000
     29221      1635  TIP3      H2             33.0264186431       -7.7952931153       33.9910090341  TIP3      1435            0.0000000000
     29222      1636  TIP3      OH2            27.2800416778      -11.8342330733       24.3008839238  TIP3      1436            0.0000000000
     29223      1636  TIP3      H1             26.5666796605      -11.2733642488       23.9339985005  TIP3      1436            0.0000000000
     29224      1636  TIP3      H2             27.9641897137      -11.7894068469       23.6097849444  TIP3      1436            0.0000000000
     29225      1637  TIP3      OH2            34.6327793141      -12.4067656103       32.5731260385  TIP3      1437            0.0000000000
     29226      1637  TIP3      H1             33.9868233107      -11.6850849685       32.5772921625  TIP3      1437            0.0000000000
     29227      1637  TIP3      H2             35.1496725091      -12.1977898037       31.7661872958  TIP3      1437            0.0000000000
     29228      1638  TIP3      OH2            30.7079164828      -11.6360701920       25.2105031581  TIP3      1438            0.0000000000
     29229      1638  TIP3      H1             29.9779034579      -11.3931783499       25.8306973476  TIP3      1438            0.0000000000
     29230      1638  TIP3      H2             31.1932809505      -12.2959746921       25.7385621385  TIP3      1438            0.0000000000
     29231      1639  TIP3      OH2            30.6614979966      -13.4538974717       34.3185385578  TIP3      1439            0.0000000000
     29232      1639  TIP3      H1             30.5861049635      -12.6675171686       34.8585653384  TIP3      1439            0.0000000000
     29233      1639  TIP3      H2             29.9964553672      -13.2166954003       33.6303847606  TIP3      1439            0.0000000000
     29234      1640  TIP3      OH2            22.3228161638      -10.9772535869       27.1204855638  TIP3      1440            0.0000000000
     29235      1640  TIP3      H1             22.0040989956      -11.3735468265       26.2920749966  TIP3      1440            0.0000000000
     29236      1640  TIP3      H2             22.9376729855      -11.6668121096       27.4678466145  TIP3      1440            0.0000000000
     29237      1641  TIP3      OH2            23.6452748334       -7.6015510115       29.8062592002  TIP3      1441            0.0000000000
     29238      1641  TIP3      H1             23.6287357872       -8.1230101844       28.9968241999  TIP3      1441            0.0000000000
     29239      1641  TIP3      H2             24.4276365262       -7.9612397148       30.2619994125  TIP3      1441            0.0000000000
     29240      1642  TIP3      OH2            22.6450147484      -12.2358536588       30.7875037690  TIP3      1442            0.0000000000
     29241      1642  TIP3      H1             23.1975382803      -12.1399972447       29.9867296931  TIP3      1442            0.0000000000
     29242      1642  TIP3      H2             23.0367431430      -11.5712960320       31.3957392406  TIP3      1442            0.0000000000
     29243      1643  TIP3      OH2            29.0507820142       -6.6473273523       31.4801982364  TIP3      1443            0.0000000000
     29244      1643  TIP3      H1             28.7844201914       -6.0252342855       32.1635925127  TIP3      1443            0.0000000000
     29245      1643  TIP3      H2             28.8024101787       -7.5065026311       31.8954495135  TIP3      1443            0.0000000000
     29246      1644  TIP3      OH2            23.6013016339       -7.8035780760       35.4790522836  TIP3      1444            0.0000000000
     29247      1644  TIP3      H1             23.1857029457       -7.0659720591       35.9719121942  TIP3      1444            0.0000000000
     29248      1644  TIP3      H2             22.9287725402       -8.0042359426       34.7824232668  TIP3      1444            0.0000000000
     29249      1645  TIP3      OH2            29.5877169607      -12.4351988401       22.8748917029  TIP3      1445            0.0000000000
     29250      1645  TIP3      H1             30.1021733286      -12.2695240855       23.7038414565  TIP3      1445            0.0000000000
     29251      1645  TIP3      H2             30.0099723091      -11.8919770792       22.2179625412  TIP3      1445            0.0000000000
     29252      1646  TIP3      OH2            20.5475882370      -11.6373291716       34.6291264088  TIP3      1446            0.0000000000
     29253      1646  TIP3      H1             20.5978500632      -10.9891049158       35.3551802087  TIP3      1446            0.0000000000
     29254      1646  TIP3      H2             19.6023583763      -11.5618286285       34.4251223743  TIP3      1446            0.0000000000
     29255      1647  TIP3      OH2            27.3276657069       -5.7157087986       26.3257018236  TIP3      1447            0.0000000000
     29256      1647  TIP3      H1             27.7357725573       -5.4125060793       27.1460161119  TIP3      1447            0.0000000000
     29257      1647  TIP3      H2             26.7402950359       -4.9873502144       26.1097572044  TIP3      1447            0.0000000000
     29258      1648  TIP3      OH2            21.8547042615       -5.7755750735       36.2343058966  TIP3      1448            0.0000000000
     29259      1648  TIP3      H1             21.7902512804       -5.8681563049       35.2669704784  TIP3      1448            0.0000000000
     29260      1648  TIP3      H2             20.9230016707       -5.9056440209       36.4980944206  TIP3      1448            0.0000000000
     29261      1649  TIP3      OH2            33.3275458546      -20.6800502478       22.7833448217  TIP3      1449            0.0000000000
     29262      1649  TIP3      H1             32.3739482182      -20.6411907674       23.0516204020  TIP3      1449            0.0000000000
     29263      1649  TIP3      H2             33.4094389853      -19.8452771384       22.3262260202  TIP3      1449            0.0000000000
     29264      1650  TIP3      OH2            21.3266183075      -11.9994016527       24.5697878808  TIP3      1450            0.0000000000
     29265      1650  TIP3      H1             20.9649238150      -11.1281436902       24.3587359626  TIP3      1450            0.0000000000
     29266      1650  TIP3      H2             20.5761289029      -12.6031981226       24.6171586048  TIP3      1450            0.0000000000
     29267      1651  TIP3      OH2            17.3744056475       -9.5306387154       33.6425848825  TIP3      1451            0.0000000000
     29268      1651  TIP3      H1             16.9367510462       -9.6096071826       32.7755560538  TIP3      1451            0.0000000000
     29269      1651  TIP3      H2             17.4611163287      -10.4781018897       33.8551636000  TIP3      1451            0.0000000000
     29270      1652  TIP3      OH2            17.1609848033       -6.7491210837       30.3507015426  TIP3      1452            0.0000000000
     29271      1652  TIP3      H1             18.1095594312       -6.9322799596       30.4106949441  TIP3      1452            0.0000000000
     29272      1652  TIP3      H2             17.0532082049       -5.9966529888       30.9457898209  TIP3      1452            0.0000000000
     29273      1653  TIP3      OH2            35.3876362424       -6.0848176741       36.0981321715  TIP3      1453            0.0000000000
     29274      1653  TIP3      H1             35.2837528623       -7.0404230257       36.0826670361  TIP3      1453            0.0000000000
     29275      1653  TIP3      H2             34.5310526453       -5.8224864996       36.4980838525  TIP3      1453            0.0000000000
     29276      1654  TIP3      OH2            26.3322552500       -6.5513151805       34.9644105868  TIP3      1454            0.0000000000
     29277      1654  TIP3      H1             26.3943152769       -5.7100500377       35.4748062805  TIP3      1454            0.0000000000
     29278      1654  TIP3      H2             25.4616691213       -6.9131995414       35.2198594834  TIP3      1454            0.0000000000
     29279      1655  TIP3      OH2            26.6696660294       -2.7873272738       24.7646387114  TIP3      1455            0.0000000000
     29280      1655  TIP3      H1             26.7359261019       -2.8603382951       23.8161236140  TIP3      1455            0.0000000000
     29281      1655  TIP3      H2             26.8643968762       -1.8490540096       24.9427890952  TIP3      1455            0.0000000000
     29282      1656  TIP3      OH2            20.3356062607       -3.8602088331       26.6651453849  TIP3      1456            0.0000000000
     29283      1656  TIP3      H1             20.6317176108       -4.4185644655       27.4312932686  TIP3      1456            0.0000000000
     29284      1656  TIP3      H2             19.6337818491       -4.4451089522       26.2924180890  TIP3      1456            0.0000000000
     29285      1657  TIP3      OH2            29.5220203291       -3.6179578282       24.5844408958  TIP3      1457            0.0000000000
     29286      1657  TIP3      H1             28.5655787181       -3.6197430649       24.6894591798  TIP3      1457            0.0000000000
     29287      1657  TIP3      H2             29.7749789695       -4.4135381709       25.0680434427  TIP3      1457            0.0000000000
     29288      1658  TIP3      OH2            32.5221661090      -14.6121154387       36.5676983089  TIP3      1458            0.0000000000
     29289      1658  TIP3      H1             32.0421547712      -14.2045290535       35.8320659539  TIP3      1458            0.0000000000
     29290      1658  TIP3      H2             32.5130096100      -15.5443299629       36.2906642621  TIP3      1458            0.0000000000
     29291      1659  TIP3      OH2            19.6665835278       -8.2187370838       34.5756065373  TIP3      1459            0.0000000000
     29292      1659  TIP3      H1             19.8876034157       -8.5802020516       35.4606059479  TIP3      1459            0.0000000000
     29293      1659  TIP3      H2             18.7952421144       -8.6152661033       34.3662550005  TIP3      1459            0.0000000000
     29294      1660  TIP3      OH2            22.3495342817      -19.7325583816       30.5165997856  TIP3      1460            0.0000000000
     29295      1660  TIP3      H1             21.4436375218      -19.8660580511       30.1611159371  TIP3      1460            0.0000000000
     29296      1660  TIP3      H2             22.2120005339      -18.9098544446       31.0151097110  TIP3      1460            0.0000000000
     29297      1661  TIP3      OH2            26.9890136678      -20.0758468909       33.8884358068  TIP3      1461            0.0000000000
     29298      1661  TIP3      H1             27.3836865128      -20.4984519720       34.6744594337  TIP3      1461            0.0000000000
     29299      1661  TIP3      H2             26.0166943493      -20.1861366589       34.0404297369  TIP3      1461            0.0000000000
     29300      1662  TIP3      OH2            30.2805979761      -16.2279213503       34.7992861741  TIP3      1462            0.0000000000
     29301      1662  TIP3      H1             29.7098287510      -16.4406926335       35.5760959277  TIP3      1462            0.0000000000
     29302      1662  TIP3      H2             30.0753583366      -15.3147428242       34.5519335281  TIP3      1462            0.0000000000
     29303      1663  TIP3      OH2            22.4472844042      -14.7682158304       31.7687621015  TIP3      1463            0.0000000000
     29304      1663  TIP3      H1             21.7207761633      -14.7798810812       32.4163570536  TIP3      1463            0.0000000000
     29305      1663  TIP3      H2             22.3827538769      -13.8553103206       31.4078778398  TIP3      1463            0.0000000000
     29306      1664  TIP3      OH2            22.4044631634      -14.6322383521       26.6465473839  TIP3      1464            0.0000000000
     29307      1664  TIP3      H1             21.4731143496      -14.9037697926       26.5148876078  TIP3      1464            0.0000000000
     29308      1664  TIP3      H2             22.7969864849      -14.9670643653       25.8187000287  TIP3      1464            0.0000000000
     29309      1665  TIP3      OH2            27.9065149399      -14.1811335754       25.3764489858  TIP3      1465            0.0000000000
     29310      1665  TIP3      H1             27.5290970798      -13.3295213219       25.0619613935  TIP3      1465            0.0000000000
     29311      1665  TIP3      H2             28.6054883943      -14.3238968146       24.7190993532  TIP3      1465            0.0000000000
     29312      1666  TIP3      OH2            26.9952865885      -13.9461408108       36.8398649712  TIP3      1466            0.0000000000
     29313      1666  TIP3      H1             26.4491915392      -14.7051550514       37.1610700582  TIP3      1466            0.0000000000
     29314      1666  TIP3      H2             27.8225067385      -14.0642600730       37.3344238303  TIP3      1466            0.0000000000
     29315      1667  TIP3      OH2            28.9628087050      -14.6502778509       28.2562025047  TIP3      1467            0.0000000000
     29316      1667  TIP3      H1             28.6790306402      -14.0931191604       27.5120696194  TIP3      1467            0.0000000000
     29317      1667  TIP3      H2             29.0602693602      -15.5044200528       27.7938626253  TIP3      1467            0.0000000000
     29318      1668  TIP3      OH2            20.0687394895      -14.5099769235       33.4732462614  TIP3      1468            0.0000000000
     29319      1668  TIP3      H1             20.1772423288      -14.1334828150       34.3695628407  TIP3      1468            0.0000000000
     29320      1668  TIP3      H2             19.6336399821      -15.3536308111       33.6734721070  TIP3      1468            0.0000000000
     29321      1669  TIP3      OH2            16.7251279248      -17.4375546616       27.4483762049  TIP3      1469            0.0000000000
     29322      1669  TIP3      H1             17.4006216402      -17.4339046460       28.1591089474  TIP3      1469            0.0000000000
     29323      1669  TIP3      H2             17.2077325293      -17.7666200542       26.6773620776  TIP3      1469            0.0000000000
     29324      1670  TIP3      OH2            17.9622892673      -16.6862351410       22.7917360021  TIP3      1470            0.0000000000
     29325      1670  TIP3      H1             18.4913251167      -16.0806933757       22.2417931058  TIP3      1470            0.0000000000
     29326      1670  TIP3      H2             17.3026556395      -16.0426011322       23.1099951189  TIP3      1470            0.0000000000
     29327      1671  TIP3      OH2            28.2186111102      -13.0682277095       32.8527252069  TIP3      1471            0.0000000000
     29328      1671  TIP3      H1             28.5456329840      -13.7501862633       32.2301596010  TIP3      1471            0.0000000000
     29329      1671  TIP3      H2             27.6841861456      -13.5999384092       33.4741753407  TIP3      1471            0.0000000000
     29330      1672  TIP3      OH2            24.9516161692      -17.0882307472       27.6642876710  TIP3      1472            0.0000000000
     29331      1672  TIP3      H1             24.0138731745      -17.0902926923       27.9584669574  TIP3      1472            0.0000000000
     29332      1672  TIP3      H2             25.4421795227      -17.2666629828       28.4817665439  TIP3      1472            0.0000000000
     29333      1673  TIP3      OH2            19.7774361116      -15.5411601031       26.5172234496  TIP3      1473            0.0000000000
     29334      1673  TIP3      H1             18.8883965688      -15.4093936689       26.1265834210  TIP3      1473            0.0000000000
     29335      1673  TIP3      H2             20.0738125764      -16.3878176422       26.1354580952  TIP3      1473            0.0000000000
     29336      1674  TIP3      OH2            23.3945816761      -15.4511064111       24.1664266457  TIP3      1474            0.0000000000
     29337      1674  TIP3      H1             24.3659194320      -15.4320299384       24.3187002104  TIP3      1474            0.0000000000
     29338      1674  TIP3      H2             23.2493025528      -14.8146772682       23.4733479493  TIP3      1474            0.0000000000
     29339      1675  TIP3      OH2            29.3655394391      -17.8572168587       30.8894406151  TIP3      1475            0.0000000000
     29340      1675  TIP3      H1             28.6756183425      -17.8147368766       31.5858421786  TIP3      1475            0.0000000000
     29341      1675  TIP3      H2             28.8610227333      -18.1167975482       30.1048192463  TIP3      1475            0.0000000000
     29342      1676  TIP3      OH2            32.5690197071       -2.2213665705       37.2155286820  TIP3      1476            0.0000000000
     29343      1676  TIP3      H1             32.8346258231       -1.8358398830       36.3623013460  TIP3      1476            0.0000000000
     29344      1676  TIP3      H2             33.2916655576       -1.8997097333       37.7746252988  TIP3      1476            0.0000000000
     29345      1677  TIP3      OH2            20.2372310770       -9.7175818833       36.7769284152  TIP3      1477            0.0000000000
     29346      1677  TIP3      H1             20.9624943929       -9.4977889343       37.3846498021  TIP3      1477            0.0000000000
     29347      1677  TIP3      H2             19.4723527978       -9.6696327894       37.3920839091  TIP3      1477            0.0000000000
     29348      1678  TIP3      OH2            26.2449247829      -14.3381304711       29.5446290916  TIP3      1478            0.0000000000
     29349      1678  TIP3      H1             26.8451979652      -14.8711635806       29.0096976750  TIP3      1478            0.0000000000
     29350      1678  TIP3      H2             26.0994914073      -14.8891325201       30.3255189198  TIP3      1478            0.0000000000
     29351      1679  TIP3      OH2            21.2294634064      -18.1854802700       25.9322245730  TIP3      1479            0.0000000000
     29352      1679  TIP3      H1             20.9614198409      -19.1187180529       25.9464142940  TIP3      1479            0.0000000000
     29353      1679  TIP3      H2             22.0398849186      -18.2624162681       25.4112332102  TIP3      1479            0.0000000000
     29354      1680  TIP3      OH2            24.8804137904      -16.0095988485       31.9577571206  TIP3      1480            0.0000000000
     29355      1680  TIP3      H1             24.0555127417      -15.4932740553       32.0609713433  TIP3      1480            0.0000000000
     29356      1680  TIP3      H2             25.4418636776      -15.6596222960       32.6765463141  TIP3      1480            0.0000000000
     29357      1681  TIP3      OH2            25.4601397444       -9.8060001143       23.6615882401  TIP3      1481            0.0000000000
     29358      1681  TIP3      H1             24.6652705337      -10.2593980817       23.3250424288  TIP3      1481            0.0000000000
     29359      1681  TIP3      H2             25.2513709798       -9.6462551334       24.6009013990  TIP3      1481            0.0000000000
     29360      1682  TIP3      OH2            32.6387761965      -10.5317129087       32.5088629956  TIP3      1482            0.0000000000
     29361      1682  TIP3      H1             33.2204730146      -10.1223528458       31.8320578444  TIP3      1482            0.0000000000
     29362      1682  TIP3      H2             31.8104170817      -10.5588137259       31.9799449466  TIP3      1482            0.0000000000
     29363      1683  TIP3      OH2            29.3245306591      -16.9915164653       21.8824417085  TIP3      1483            0.0000000000
     29364      1683  TIP3      H1             28.4152561068      -16.7993467957       21.6079048135  TIP3      1483            0.0000000000
     29365      1683  TIP3      H2             29.6202799900      -16.1103318596       22.1642290961  TIP3      1483            0.0000000000
     29366      1684  TIP3      OH2            27.0152672995       -9.5138869478       34.9227527941  TIP3      1484            0.0000000000
     29367      1684  TIP3      H1             26.5949080910       -9.9504460323       35.6753892051  TIP3      1484            0.0000000000
     29368      1684  TIP3      H2             26.6881741917       -8.6065041733       34.9956529194  TIP3      1484            0.0000000000
     29369      1685  TIP3      OH2            30.0675194235      -15.0441302382       23.5070677302  TIP3      1485            0.0000000000
     29370      1685  TIP3      H1             30.9552550480      -15.1621939020       23.8855695675  TIP3      1485            0.0000000000
     29371      1685  TIP3      H2             30.0944441790      -14.2261110103       22.9945437002  TIP3      1485            0.0000000000
     29372      1686  TIP3      OH2            20.5822850156      -10.3911513155       29.4550165139  TIP3      1486            0.0000000000
     29373      1686  TIP3      H1             21.2596243430      -10.4737729611       28.7582531817  TIP3      1486            0.0000000000
     29374      1686  TIP3      H2             20.6442273449      -11.2490798558       29.9126742280  TIP3      1486            0.0000000000
     29375      1687  TIP3      OH2            17.5739459949      -11.9900476801       34.7201982411  TIP3      1487            0.0000000000
     29376      1687  TIP3      H1             17.7472753475      -12.4340156780       35.5743463680  TIP3      1487            0.0000000000
     29377      1687  TIP3      H2             16.9667458093      -12.6133720285       34.2853192780  TIP3      1487            0.0000000000
     29378      1688  TIP3      OH2            24.6041236623      -12.3956082072       36.8726745022  TIP3      1488            0.0000000000
     29379      1688  TIP3      H1             24.2502770024      -12.7601795961       36.0480037098  TIP3      1488            0.0000000000
     29380      1688  TIP3      H2             25.5040046223      -12.7732336317       36.8957036201  TIP3      1488            0.0000000000
     29381      1689  TIP3      OH2            29.2817789341       -7.1390851685       34.8742156480  TIP3      1489            0.0000000000
     29382      1689  TIP3      H1             28.3712616554       -6.9179168801       34.6037207067  TIP3      1489            0.0000000000
     29383      1689  TIP3      H2             29.2246276952       -6.7812250783       35.7858294382  TIP3      1489            0.0000000000
     29384      1690  TIP3      OH2            34.9908143723      -14.9515523255       23.2170128676  TIP3      1490            0.0000000000
     29385      1690  TIP3      H1             34.3201332961      -15.1744046832       22.5560309764  TIP3      1490            0.0000000000
     29386      1690  TIP3      H2             35.0484575771      -13.9985495496       22.9958383047  TIP3      1490            0.0000000000
     29387      1691  TIP3      OH2            34.8801559077       -9.1169902357       36.0443766902  TIP3      1491            0.0000000000
     29388      1691  TIP3      H1             34.0796528043       -8.7425887669       35.6368083652  TIP3      1491            0.0000000000
     29389      1691  TIP3      H2             35.4942434046       -9.0782215207       35.2726958422  TIP3      1491            0.0000000000
     29390      1692  TIP3      OH2            33.3466466047       -6.1239209015       23.6570501726  TIP3      1492            0.0000000000
     29391      1692  TIP3      H1             32.8361205080       -6.8786587578       23.9790386278  TIP3      1492            0.0000000000
     29392      1692  TIP3      H2             33.4770063444       -6.2656633307       22.7202512934  TIP3      1492            0.0000000000
     29393      1693  TIP3      OH2            30.4497312564      -11.2826340054       30.7707124336  TIP3      1493            0.0000000000
     29394      1693  TIP3      H1             29.5045734297      -11.4733656435       30.6178550069  TIP3      1493            0.0000000000
     29395      1693  TIP3      H2             30.8685270075      -12.0227203721       30.2904936678  TIP3      1493            0.0000000000
     29396      1694  TIP3      OH2            22.8993514020       -6.9158765632       26.9254029054  TIP3      1494            0.0000000000
     29397      1694  TIP3      H1             23.4792427483       -6.1973936593       26.6210934685  TIP3      1494            0.0000000000
     29398      1694  TIP3      H2             22.0675208671       -6.7137069408       26.4871834250  TIP3      1494            0.0000000000
     29399      1695  TIP3      OH2            24.3547301528       -9.2784955884       26.3455245396  TIP3      1495            0.0000000000
     29400      1695  TIP3      H1             24.0682874914       -8.3529810106       26.4524097038  TIP3      1495            0.0000000000
     29401      1695  TIP3      H2             23.6468635429       -9.7605262082       26.8132784220  TIP3      1495            0.0000000000
     29402      1696  TIP3      OH2            24.8256332041       -5.0890465450       32.7713460132  TIP3      1496            0.0000000000
     29403      1696  TIP3      H1             25.2855523721       -4.2856714967       32.4842587110  TIP3      1496            0.0000000000
     29404      1696  TIP3      H2             25.4386417989       -5.4336180331       33.4445985234  TIP3      1496            0.0000000000
     29405      1697  TIP3      OH2            23.0334248587       -4.2361865321       25.8631242865  TIP3      1497            0.0000000000
     29406      1697  TIP3      H1             22.0894572169       -4.1836607384       26.0703822610  TIP3      1497            0.0000000000
     29407      1697  TIP3      H2             23.4083459630       -3.4732169369       26.3310018041  TIP3      1497            0.0000000000
     29408      1698  TIP3      OH2            28.3751245584       -9.0697447409       32.4010941119  TIP3      1498            0.0000000000
     29409      1698  TIP3      H1             28.0007288711       -9.2901926551       33.2793072348  TIP3      1498            0.0000000000
     29410      1698  TIP3      H2             28.9623348014       -9.8154286065       32.2015468473  TIP3      1498            0.0000000000
     29411      1699  TIP3      OH2            30.6396818151       -8.1473161496       21.4759259114  TIP3      1499            0.0000000000
     29412      1699  TIP3      H1             30.9799137746       -8.5038875415       22.3173013632  TIP3      1499            0.0000000000
     29413      1699  TIP3      H2             29.7035464903       -8.1666232415       21.6481646090  TIP3      1499            0.0000000000
     29414      1700  TIP3      OH2            31.1731394810       -4.5421560506       34.8695673740  TIP3      1500            0.0000000000
     29415      1700  TIP3      H1             30.4572863138       -4.9917990391       34.3883828964  TIP3      1500            0.0000000000
     29416      1700  TIP3      H2             31.3509935661       -3.8205603996       34.2260475212  TIP3      1500            0.0000000000
     29417      1701  TIP3      OH2            35.1807642261       -3.6491252758       21.7891371444  TIP3      1501            0.0000000000
     29418      1701  TIP3      H1             35.8349908756       -3.0083061789       21.4560807772  TIP3      1501            0.0000000000
     29419      1701  TIP3      H2             34.4569131562       -3.0263977763       22.0231558034  TIP3      1501            0.0000000000
     29420      1702  TIP3      OH2            19.2263004178      -17.2535644373       34.2754493251  TIP3      1502            0.0000000000
     29421      1702  TIP3      H1             18.3197889779      -16.9021969307       34.2483893914  TIP3      1502            0.0000000000
     29422      1702  TIP3      H2             19.1104257474      -18.1010821358       34.7323940765  TIP3      1502            0.0000000000
     29423      1703  TIP3      OH2            31.4499218335       -9.4331242977       23.7245330346  TIP3      1503            0.0000000000
     29424      1703  TIP3      H1             31.1949057542      -10.1913829441       24.2974434783  TIP3      1503            0.0000000000
     29425      1703  TIP3      H2             32.3887502266       -9.3427288364       23.9345759851  TIP3      1503            0.0000000000
     29426      1704  TIP3      OH2            18.8399548728       -5.4690112897       32.6651704753  TIP3      1504            0.0000000000
     29427      1704  TIP3      H1             19.1362265520       -6.3939506458       32.7070032844  TIP3      1504            0.0000000000
     29428      1704  TIP3      H2             19.0901086958       -5.1720227342       33.5526156437  TIP3      1504            0.0000000000
     29429      1705  TIP3      OH2            23.5370498254       -7.4261976111       22.4360507478  TIP3      1505            0.0000000000
     29430      1705  TIP3      H1             23.8664010925       -7.9276308513       23.1860546890  TIP3      1505            0.0000000000
     29431      1705  TIP3      H2             23.6771845613       -6.4983337163       22.7059672671  TIP3      1505            0.0000000000
     29432      1706  TIP3      OH2            27.9546696952      -17.4840861736       33.2315844349  TIP3      1506            0.0000000000
     29433      1706  TIP3      H1             28.6629400909      -17.4209085600       33.8797520424  TIP3      1506            0.0000000000
     29434      1706  TIP3      H2             27.5738031953      -18.3613402889       33.4322014130  TIP3      1506            0.0000000000
     29435      1707  TIP3      OH2            28.7274602694      -17.9435262715       24.3356708336  TIP3      1507            0.0000000000
     29436      1707  TIP3      H1             28.9351242858      -17.4507331772       23.5137741408  TIP3      1507            0.0000000000
     29437      1707  TIP3      H2             29.2823192091      -17.4784905543       24.9722873095  TIP3      1507            0.0000000000
     29438      1708  TIP3      OH2            26.3985552342       -5.6873308972       23.1528843844  TIP3      1508            0.0000000000
     29439      1708  TIP3      H1             25.5336061831       -5.2516267361       23.1883454122  TIP3      1508            0.0000000000
     29440      1708  TIP3      H2             26.9279576759       -5.2400455588       22.4867031545  TIP3      1508            0.0000000000
     29441      1709  TIP3      OH2            25.8813550061      -16.1252563691       25.1108860366  TIP3      1509            0.0000000000
     29442      1709  TIP3      H1             26.7083062796      -15.5969747935       25.1516095461  TIP3      1509            0.0000000000
     29443      1709  TIP3      H2             25.6597762301      -16.3072812562       26.0443599587  TIP3      1509            0.0000000000
     29444      1710  TIP3      OH2            26.5347174721      -15.1112719415       34.2955683848  TIP3      1510            0.0000000000
     29445      1710  TIP3      H1             26.5773479600      -14.5720388444       35.1122994901  TIP3      1510            0.0000000000
     29446      1710  TIP3      H2             27.1581877182      -15.8386013068       34.4195074668  TIP3      1510            0.0000000000
     29447      1711  TIP3      OH2            26.7797442065      -19.0937575939       26.0489837631  TIP3      1511            0.0000000000
     29448      1711  TIP3      H1             26.4498310754      -18.4391343212       26.6873863578  TIP3      1511            0.0000000000
     29449      1711  TIP3      H2             27.4623134433      -18.5542752052       25.5817409204  TIP3      1511            0.0000000000
     29450      1712  TIP3      OH2            23.7209160686       -4.7141629229       23.1719629533  TIP3      1512            0.0000000000
     29451      1712  TIP3      H1             23.9011501490       -3.9237522615       22.6322202900  TIP3      1512            0.0000000000
     29452      1712  TIP3      H2             23.5012218567       -4.4042759034       24.0727659748  TIP3      1512            0.0000000000
     29453      1713  TIP3      OH2            22.4986766191      -17.9190222438       22.6899002684  TIP3      1513            0.0000000000
     29454      1713  TIP3      H1             22.3932017004      -17.0974206291       23.1754196233  TIP3      1513            0.0000000000
     29455      1713  TIP3      H2             23.3569001510      -18.2536281221       23.0038455824  TIP3      1513            0.0000000000
     29456      1714  TIP3      OH2            32.6609418304      -17.2761348028       35.1693558467  TIP3      1514            0.0000000000
     29457      1714  TIP3      H1             31.7350495583      -16.9515829101       35.0420334019  TIP3      1514            0.0000000000
     29458      1714  TIP3      H2             32.9633405298      -17.2916124598       34.2461490457  TIP3      1514            0.0000000000
     29459      1715  TIP3      OH2            31.2818915006      -13.4846211595       29.1688000293  TIP3      1515            0.0000000000
     29460      1715  TIP3      H1             30.4518945460      -13.9304156050       28.9086569077  TIP3      1515            0.0000000000
     29461      1715  TIP3      H2             31.7517984705      -14.1660537200       29.6998525514  TIP3      1515            0.0000000000
     29462      1716  TIP3      OH2            20.7409794516       -7.6376940905       21.8556358249  TIP3      1516            0.0000000000
     29463      1716  TIP3      H1             21.3222965328       -6.8966660077       22.0812483916  TIP3      1516            0.0000000000
     29464      1716  TIP3      H2             21.1497943001       -7.8940355360       21.0175728893  TIP3      1516            0.0000000000
     29465      1717  TIP3      OH2            19.0594083279      -14.8981753746       20.8869660686  TIP3      1517            0.0000000000
     29466      1717  TIP3      H1             18.9592889013      -13.9705107950       21.0920840538  TIP3      1517            0.0000000000
     29467      1717  TIP3      H2             18.1585816655      -15.1134797990       20.5798858227  TIP3      1517            0.0000000000
     29468      1718  TIP3      OH2            32.3354226979       -4.2211306251       30.8495885820  TIP3      1518            0.0000000000
     29469      1718  TIP3      H1             32.2487859684       -3.5390285870       30.1529866367  TIP3      1518            0.0000000000
     29470      1718  TIP3      H2             33.2984214622       -4.1733388046       31.0205031522  TIP3      1518            0.0000000000
     29471      1719  TIP3      OH2            19.8317921876      -20.0980176026       29.6722603801  TIP3      1519            0.0000000000
     29472      1719  TIP3      H1             19.6538369948      -20.0778284932       28.7073671771  TIP3      1519            0.0000000000
     29473      1719  TIP3      H2             19.4159171926      -20.9525589285       29.9120651956  TIP3      1519            0.0000000000
     29474      1720  TIP3      OH2            18.8246669688       -6.0359231233       25.8795251902  TIP3      1520            0.0000000000
     29475      1720  TIP3      H1             17.9048365817       -5.7944953929       25.7038252487  TIP3      1520            0.0000000000
     29476      1720  TIP3      H2             19.2361235155       -5.7531759225       25.0506508353  TIP3      1520            0.0000000000
     29477      1721  TIP3      OH2            17.9833449528       -3.5263165668       37.0817828654  TIP3      1521            0.0000000000
     29478      1721  TIP3      H1             18.5925077408       -3.7248234534       37.8217230859  TIP3      1521            0.0000000000
     29479      1721  TIP3      H2             17.5933845951       -4.4004878575       36.9026545699  TIP3      1521            0.0000000000
     29480      1722  TIP3      OH2            22.6777979118       -4.6055204752       38.6881674867  TIP3      1522            0.0000000000
     29481      1722  TIP3      H1             23.4295558059       -5.1093378410       39.0241706273  TIP3      1522            0.0000000000
     29482      1722  TIP3      H2             22.6452256711       -4.8879200433       37.7556849842  TIP3      1522            0.0000000000
     29483      1723  TIP3      OH2            29.2026133770       -6.2491720617       37.4175827676  TIP3      1523            0.0000000000
     29484      1723  TIP3      H1             28.8410004359       -7.1014499438       37.7414033430  TIP3      1523            0.0000000000
     29485      1723  TIP3      H2             29.9373720827       -6.0907253735       38.0446277013  TIP3      1523            0.0000000000
     29486      1724  TIP3      OH2            31.3667212087       -5.3536534085       20.3746978522  TIP3      1524            0.0000000000
     29487      1724  TIP3      H1             31.6451046288       -6.1685133428       20.8034891616  TIP3      1524            0.0000000000
     29488      1724  TIP3      H2             32.0805825659       -5.0981984308       19.7914109552  TIP3      1524            0.0000000000
     29489      1725  TIP3      OH2            17.9029878028       -9.7593438045       38.0826400024  TIP3      1525            0.0000000000
     29490      1725  TIP3      H1             18.0736557775      -10.6757036083       37.7903083128  TIP3      1525            0.0000000000
     29491      1725  TIP3      H2             17.1633203695       -9.5024475733       37.5060345793  TIP3      1525            0.0000000000
     29492      1726  TIP3      OH2            24.6436999485       -9.7519077655       37.4491866426  TIP3      1526            0.0000000000
     29493      1726  TIP3      H1             24.2762531474       -9.4554278443       36.5962977614  TIP3      1526            0.0000000000
     29494      1726  TIP3      H2             24.6874464309      -10.7338764864       37.3615730570  TIP3      1526            0.0000000000
     29495      1727  TIP3      OH2            30.1645224328       -9.8389980167       34.7662377820  TIP3      1527            0.0000000000
     29496      1727  TIP3      H1             30.8514888765       -9.1740455538       34.5793943463  TIP3      1527            0.0000000000
     29497      1727  TIP3      H2             29.4394117094       -9.1975915549       34.8705545347  TIP3      1527            0.0000000000
     29498      1728  TIP3      OH2            18.7533306719      -12.5260032355       37.4509545369  TIP3      1528            0.0000000000
     29499      1728  TIP3      H1             19.2518735505      -13.3546603315       37.3501020807  TIP3      1528            0.0000000000
     29500      1728  TIP3      H2             18.6062006293      -12.5347375659       38.4100709501  TIP3      1528            0.0000000000
     29501      1729  TIP3      OH2            23.4524775686      -11.3870918526       22.5608950757  TIP3      1529            0.0000000000
     29502      1729  TIP3      H1             23.0142687137      -11.9265661535       23.2264061924  TIP3      1529            0.0000000000
     29503      1729  TIP3      H2             23.8137123600      -12.0278319798       21.9290755158  TIP3      1529            0.0000000000
     29504      1730  TIP3      OH2            22.7530350957      -13.5802415564       34.8197018129  TIP3      1530            0.0000000000
     29505      1730  TIP3      H1             22.1217532363      -12.8961353100       35.0997299340  TIP3      1530            0.0000000000
     29506      1730  TIP3      H2             23.1100839312      -13.2017336872       33.9999320826  TIP3      1530            0.0000000000
     29507      1731  TIP3      OH2            27.8160307414      -11.0324546489       38.1221371490  TIP3      1531            0.0000000000
     29508      1731  TIP3      H1             28.7685201651      -11.0386151110       38.0785676133  TIP3      1531            0.0000000000
     29509      1731  TIP3      H2             27.6065912730      -11.7759015752       38.7167486197  TIP3      1531            0.0000000000
     29510      1732  TIP3      OH2            23.2169552091      -16.2217314067       35.8647471553  TIP3      1532            0.0000000000
     29511      1732  TIP3      H1             23.2291582474      -16.9271024504       35.2043359905  TIP3      1532            0.0000000000
     29512      1732  TIP3      H2             23.0499790763      -15.4024016285       35.3540642560  TIP3      1532            0.0000000000
     29513      1733  TIP3      OH2            23.5272037053      -17.8280120619       33.4274557434  TIP3      1533            0.0000000000
     29514      1733  TIP3      H1             24.0330935272      -17.3499319388       32.7293336609  TIP3      1533            0.0000000000
     29515      1733  TIP3      H2             22.6342996018      -17.9011463450       33.0214061131  TIP3      1533            0.0000000000
     29516      1734  TIP3      OH2            25.0870337545      -12.3234230585       33.6592384299  TIP3      1534            0.0000000000
     29517      1734  TIP3      H1             25.8358360750      -12.4957042641       33.0851772856  TIP3      1534            0.0000000000
     29518      1734  TIP3      H2             24.7270176600      -11.4860792391       33.3313270705  TIP3      1534            0.0000000000
     29519      1735  TIP3      OH2            29.4764440609      -14.5708971114       38.6084264153  TIP3      1535            0.0000000000
     29520      1735  TIP3      H1             29.7077866435      -15.5086452171       38.5321929206  TIP3      1535            0.0000000000
     29521      1735  TIP3      H2             30.3430365927      -14.1492959402       38.6871812438  TIP3      1535            0.0000000000
     29522      1736  TIP3      OH2            30.8169133204      -11.7649317517       36.8331182887  TIP3      1536            0.0000000000
     29523      1736  TIP3      H1             30.4295020344      -11.1615143842       36.1714650048  TIP3      1536            0.0000000000
     29524      1736  TIP3      H2             31.7626055491      -11.9436244322       36.6420431733  TIP3      1536            0.0000000000
     29525      1737  TIP3      OH2            21.2362133230      -14.7573666567       37.1065746815  TIP3      1537            0.0000000000
     29526      1737  TIP3      H1             20.7775776604      -15.4584885516       37.6230469189  TIP3      1537            0.0000000000
     29527      1737  TIP3      H2             22.1125839523      -15.1798247472       37.2315119282  TIP3      1537            0.0000000000
     29528      1738  TIP3      OH2            24.3150689936      -20.3971240396       33.8068491931  TIP3      1538            0.0000000000
     29529      1738  TIP3      H1             24.1326801052      -19.4330169827       33.7177825564  TIP3      1538            0.0000000000
     29530      1738  TIP3      H2             23.5638770400      -20.7599575479       33.3078538267  TIP3      1538            0.0000000000
     29531      1739  TIP3      OH2            25.5828216006      -16.0670138147       37.4521193839  TIP3      1539            0.0000000000
     29532      1739  TIP3      H1             25.2588000330      -16.2917079057       38.3410945231  TIP3      1539            0.0000000000
     29533      1739  TIP3      H2             24.7891775779      -16.2575679459       36.9105154986  TIP3      1539            0.0000000000
     29534      1740  TIP3      OH2            28.3084661979      -16.9112355240       36.5397830632  TIP3      1540            0.0000000000
     29535      1740  TIP3      H1             27.3431039782      -16.8643487332       36.6484183827  TIP3      1540            0.0000000000
     29536      1740  TIP3      H2             28.5785937163      -17.5604326477       37.2190624546  TIP3      1540            0.0000000000
     29537      1741  TIP3      OH2            29.8896208057      -18.2954353653       38.4331090442  TIP3      1541            0.0000000000
     29538      1741  TIP3      H1             29.8426721457      -19.2737200976       38.4643846501  TIP3      1541            0.0000000000
     29539      1741  TIP3      H2             29.6279942963      -18.0028395670       39.3295239280  TIP3      1541            0.0000000000
     29540      1742  TIP3      OH2            19.6246225178      -17.0514252815       37.5346799597  TIP3      1542            0.0000000000
     29541      1742  TIP3      H1             19.9374159936      -17.7658750219       36.9591392663  TIP3      1542            0.0000000000
     29542      1742  TIP3      H2             19.6279280463      -17.4470330874       38.4285423771  TIP3      1542            0.0000000000
     29543      1743  TIP3      OH2            24.4914392146      -21.0398830372       36.4723411543  TIP3      1543            0.0000000000
     29544      1743  TIP3      H1             25.2132826938      -21.7018903346       36.4888908659  TIP3      1543            0.0000000000
     29545      1743  TIP3      H2             24.4197344441      -20.8636472556       35.5189670276  TIP3      1543            0.0000000000
     29546      1744  TIP3      OH2            25.1519719218      -19.6756372256       38.5239453262  TIP3      1544            0.0000000000
     29547      1744  TIP3      H1             24.7628034733      -20.0494331536       37.7056523781  TIP3      1544            0.0000000000
     29548      1744  TIP3      H2             24.5327548135      -18.9003005447       38.5608892884  TIP3      1544            0.0000000000
     29549      1745  TIP3      OH2            24.3841345216       -2.3419439927       21.8978221866  TIP3      1545            0.0000000000
     29550      1745  TIP3      H1             25.3495441741       -2.3847981491       21.7766655857  TIP3      1545            0.0000000000
     29551      1745  TIP3      H2             24.1591707185       -1.8889953029       21.0562228855  TIP3      1545            0.0000000000
     29552      1746  TIP3      OH2            18.0080534924       -8.0332217437       21.3811053690  TIP3      1546            0.0000000000
     29553      1746  TIP3      H1             18.9429618182       -7.7446411062       21.4394169260  TIP3      1546            0.0000000000
     29554      1746  TIP3      H2             17.9911260818       -8.4355400036       20.4986466369  TIP3      1546            0.0000000000
     29555      1747  TIP3      OH2            16.7640824622       -2.5499184416       26.2863370286  TIP3      1547            0.0000000000
     29556      1747  TIP3      H1             16.0041334673       -2.9100463190       25.7460489149  TIP3      1547            0.0000000000
     29557      1747  TIP3      H2             16.8256837707       -3.2667556774       26.9193933760  TIP3      1547            0.0000000000
     29558      1748  TIP3      OH2            17.3379984811       -4.5463623280       28.1951408513  TIP3      1548            0.0000000000
     29559      1748  TIP3      H1             17.0513143745       -5.4565002264       28.3884732399  TIP3      1548            0.0000000000
     29560      1748  TIP3      H2             17.5483174938       -4.2589801960       29.1041232068  TIP3      1548            0.0000000000
     29561      1749  TIP3      OH2            35.0607335244       -3.5918846443       31.0447662923  TIP3      1549            0.0000000000
     29562      1749  TIP3      H1             35.0712475005       -3.4246870896       32.0030343554  TIP3      1549            0.0000000000
     29563      1749  TIP3      H2             35.7649464850       -3.0045574596       30.7488943063  TIP3      1549            0.0000000000
     29564      1750  TIP3      OH2            34.6184974425       -3.9731314784       34.0072876845  TIP3      1550            0.0000000000
     29565      1750  TIP3      H1             34.1624205897       -4.7469134231       33.6130988379  TIP3      1550            0.0000000000
     29566      1750  TIP3      H2             35.1322588343       -4.4294696748       34.6942601690  TIP3      1550            0.0000000000
     29567      1751  TIP3      OH2            33.0468239031       -8.2596440949       38.6266138014  TIP3      1551            0.0000000000
     29568      1751  TIP3      H1             32.1709175995       -8.2844224544       39.0616664831  TIP3      1551            0.0000000000
     29569      1751  TIP3      H2             33.4465773938       -7.4708249129       39.0578187270  TIP3      1551            0.0000000000
     29570      1752  TIP3      OH2            34.4224197527       -9.9522734033       24.0635174315  TIP3      1552            0.0000000000
     29571      1752  TIP3      H1             35.2198014910       -9.5260019424       24.3619291661  TIP3      1552            0.0000000000
     29572      1752  TIP3      H2             34.3395204788      -10.6509861517       24.7625501723  TIP3      1552            0.0000000000
     29573      1753  TIP3      OH2            34.7631299046      -11.8482863689       25.9431753846  TIP3      1553            0.0000000000
     29574      1753  TIP3      H1             34.0169823687      -12.3644000563       26.3292919944  TIP3      1553            0.0000000000
     29575      1753  TIP3      H2             35.3498152547      -11.7387202717       26.7232494382  TIP3      1553            0.0000000000
     29576      1754  TIP3      OH2            34.5357658718       -9.1665804729       31.0012608760  TIP3      1554            0.0000000000
     29577      1754  TIP3      H1             35.3469356089       -9.5422135537       30.6097679394  TIP3      1554            0.0000000000
     29578      1754  TIP3      H2             34.6559276771       -8.2153001733       30.7828750982  TIP3      1554            0.0000000000
     29579      1755  TIP3      OH2            33.0565435556       -6.2896284583       33.2551616417  TIP3      1555            0.0000000000
     29580      1755  TIP3      H1             32.3722841042       -5.8826658968       33.8086348547  TIP3      1555            0.0000000000
     29581      1755  TIP3      H2             32.5155195382       -6.6298815995       32.5063989086  TIP3      1555            0.0000000000
     29582      1756  TIP3      OH2            35.0816662337      -11.9686826986       22.3223647483  TIP3      1556            0.0000000000
     29583      1756  TIP3      H1             34.4678755264      -11.6638200522       21.6533648672  TIP3      1556            0.0000000000
     29584      1756  TIP3      H2             34.9223797392      -11.3498698320       23.0588227579  TIP3      1556            0.0000000000
     29585      1757  TIP3      OH2            33.3829627561      -14.7899384114       20.8960144989  TIP3      1557            0.0000000000
     29586      1757  TIP3      H1             33.5990664610      -14.1707334453       20.2002038226  TIP3      1557            0.0000000000
     29587      1757  TIP3      H2             33.1903634665      -15.6258389759       20.4036123378  TIP3      1557            0.0000000000
     29588      1758  TIP3      OH2            32.5656326466      -13.3767131890       26.5527973780  TIP3      1558            0.0000000000
     29589      1758  TIP3      H1             32.4225089962      -14.3344021677       26.5103874849  TIP3      1558            0.0000000000
     29590      1758  TIP3      H2             32.2371922929      -13.1672320734       27.4449031772  TIP3      1558            0.0000000000
     29591      1759  TIP3      OH2            17.5777517024      -11.2950171056       30.6124464438  TIP3      1559            0.0000000000
     29592      1759  TIP3      H1             17.7535321410      -11.3770982653       29.6499352976  TIP3      1559            0.0000000000
     29593      1759  TIP3      H2             18.4715521341      -11.4747797754       30.9630834664  TIP3      1559            0.0000000000
     29594      1760  TIP3      OH2            33.5209622979      -11.4630951487       36.3158017913  TIP3      1560            0.0000000000
     29595      1760  TIP3      H1             34.1227989115      -12.2479537799       36.4000551592  TIP3      1560            0.0000000000
     29596      1760  TIP3      H2             34.1841838695      -10.7273997049       36.2827072170  TIP3      1560            0.0000000000
     29597      1761  TIP3      OH2            34.9610132267      -13.5476121708       36.8838912092  TIP3      1561            0.0000000000
     29598      1761  TIP3      H1             34.0873278973      -13.9613179459       36.7357822027  TIP3      1561            0.0000000000
     29599      1761  TIP3      H2             35.5379055054      -14.3331001601       36.8229146417  TIP3      1561            0.0000000000
     29600      1762  TIP3      OH2            32.6607652172      -17.3146557721       20.1149784598  TIP3      1562            0.0000000000
     29601      1762  TIP3      H1             33.2538986882      -17.8357767909       20.6377205040  TIP3      1562            0.0000000000
     29602      1762  TIP3      H2             31.7922670917      -17.7577349544       20.1782360544  TIP3      1562            0.0000000000
     29603      1763  TIP3      OH2            32.2377459562      -15.8078727899       24.9921509605  TIP3      1563            0.0000000000
     29604      1763  TIP3      H1             32.5250868119      -16.7351114091       25.1415513348  TIP3      1563            0.0000000000
     29605      1763  TIP3      H2             33.0413275215      -15.3952481676       24.6617417524  TIP3      1563            0.0000000000
     29606      1764  TIP3      OH2            32.8798291174      -15.2673029004       30.4596265834  TIP3      1564            0.0000000000
     29607      1764  TIP3      H1             33.8363520190      -15.0278775582       30.4358846294  TIP3      1564            0.0000000000
     29608      1764  TIP3      H2             32.6914351052      -15.1146522285       31.3955507408  TIP3      1564            0.0000000000
     29609      1765  TIP3      OH2            32.9519463463      -14.5332594417       33.2558706290  TIP3      1565            0.0000000000
     29610      1765  TIP3      H1             32.0558241850      -14.2569926675       33.5331577299  TIP3      1565            0.0000000000
     29611      1765  TIP3      H2             33.3843027493      -13.6874657665       32.9963192455  TIP3      1565            0.0000000000
     29612      1766  TIP3      OH2            17.1679440402      -15.9947300611       36.7474778142  TIP3      1566            0.0000000000
     29613      1766  TIP3      H1             18.1126522581      -16.1914589960       36.9399992274  TIP3      1566            0.0000000000
     29614      1766  TIP3      H2             16.7350275245      -16.8233177367       37.0390287532  TIP3      1566            0.0000000000
     29615      1767  TIP3      OH2            35.2363150898      -20.4772195277       38.5755512960  TIP3      1567            0.0000000000
     29616      1767  TIP3      H1             35.5911652693      -21.1383047409       37.9528395399  TIP3      1567            0.0000000000
     29617      1767  TIP3      H2             35.3131515473      -19.6651395722       38.0380805203  TIP3      1567            0.0000000000
     29618      1768  TIP3      OH2            32.9284893505      -18.5385665045       25.0076001276  TIP3      1568            0.0000000000
     29619      1768  TIP3      H1             33.1011659083      -18.9419876310       25.8947524461  TIP3      1568            0.0000000000
     29620      1768  TIP3      H2             32.2707357813      -19.1600208382       24.6252844212  TIP3      1568            0.0000000000
     29621      1769  TIP3      OH2            18.3960624808      -17.7026754820       29.6148331082  TIP3      1569            0.0000000000
     29622      1769  TIP3      H1             18.8557050844      -18.5294909014       29.8726014492  TIP3      1569            0.0000000000
     29623      1769  TIP3      H2             18.9488756949      -17.0133170866       30.0041343411  TIP3      1569            0.0000000000
     29624      1770  TIP3      OH2            16.6768494037      -14.7021462576       30.6488824836  TIP3      1570            0.0000000000
     29625      1770  TIP3      H1             17.2417205819      -14.9541648489       29.8902999619  TIP3      1570            0.0000000000
     29626      1770  TIP3      H2             17.1462374830      -13.8998434928       30.9194091010  TIP3      1570            0.0000000000
     29627      1771  TIP3      OH2            34.7454039473      -18.3814761367       36.9340906103  TIP3      1571            0.0000000000
     29628      1771  TIP3      H1             33.8096341775      -18.0966049945       36.8851376639  TIP3      1571            0.0000000000
     29629      1771  TIP3      H2             34.7522252825      -18.9210264401       36.1277156193  TIP3      1571            0.0000000000
     29630      1772  TIP3      OH2            16.9677127940      -18.5546672075       24.6230298817  TIP3      1572            0.0000000000
     29631      1772  TIP3      H1             16.0730257437      -18.1762283343       24.5909452682  TIP3      1572            0.0000000000
     29632      1772  TIP3      H2             17.4503912267      -17.9435107215       24.0302894543  TIP3      1572            0.0000000000
     29633      1773  TIP3      OH2            31.7547838469       -3.4863065571       26.6783576860  TIP3      1573            0.0000000000
     29634      1773  TIP3      H1             32.4413060362       -3.7938027192       26.0601183166  TIP3      1573            0.0000000000
     29635      1773  TIP3      H2             32.2795523948       -2.9923138928       27.3217674421  TIP3      1573            0.0000000000
     29636      1774  TIP3      OH2            16.9970426820      -19.7771868166       33.0100609644  TIP3      1574            0.0000000000
     29637      1774  TIP3      H1             16.3322573044      -19.9826887486       33.6937792791  TIP3      1574            0.0000000000
     29638      1774  TIP3      H2             16.5308880812      -19.1096865338       32.4721290627  TIP3      1574            0.0000000000
     29639      1775  TIP3      OH2            19.2330727161       -6.5984008310       37.1801790343  TIP3      1575            0.0000000000
     29640      1775  TIP3      H1             18.3954945060       -6.3731795404       36.7416630849  TIP3      1575            0.0000000000
     29641      1775  TIP3      H2             18.9636584966       -6.6683886490       38.0988060481  TIP3      1575            0.0000000000
     29642      1776  TIP3      OH2            22.1307178179       -5.5820344483       33.4634826868  TIP3      1576            0.0000000000
     29643      1776  TIP3      H1             21.8018837265       -4.7146182275       33.1857271950  TIP3      1576            0.0000000000
     29644      1776  TIP3      H2             23.0560817183       -5.5006241872       33.1541312202  TIP3      1576            0.0000000000
     29645      1777  TIP3      OH2            26.4513023692       -4.1584926984       36.3613501227  TIP3      1577            0.0000000000
     29646      1777  TIP3      H1             26.5842767924       -4.5084678329       37.2727206567  TIP3      1577            0.0000000000
     29647      1777  TIP3      H2             27.3547905836       -3.8577692051       36.1215862612  TIP3      1577            0.0000000000
     29648      1778  TIP3      OH2            28.7386283084       -2.8933896707       35.6746334628  TIP3      1578            0.0000000000
     29649      1778  TIP3      H1             29.4723745235       -3.4706824605       35.4366734651  TIP3      1578            0.0000000000
     29650      1778  TIP3      H2             29.1115982373       -2.4534345850       36.4692677272  TIP3      1578            0.0000000000
     29651      1779  TIP3      OH2            33.7793936658      -20.2796669251       34.7786700661  TIP3      1579            0.0000000000
     29652      1779  TIP3      H1             32.9421676050      -19.9804143149       34.3740798768  TIP3      1579            0.0000000000
     29653      1779  TIP3      H2             33.9242862490      -21.1078319413       34.2698352080  TIP3      1579            0.0000000000
     29654      1780  TIP3      OH2            19.5257379579       -2.3939044611       33.4310142860  TIP3      1580            0.0000000000
     29655      1780  TIP3      H1             18.8174273657       -1.8340095430       33.0772394457  TIP3      1580            0.0000000000
     29656      1780  TIP3      H2             19.2474861511       -2.5381976984       34.3462963656  TIP3      1580            0.0000000000
     29657      1781  TIP3      OH2            22.0023407161       -2.8168311692       32.5047547466  TIP3      1581            0.0000000000
     29658      1781  TIP3      H1             21.1402486464       -2.6009786760       32.9328653511  TIP3      1581            0.0000000000
     29659      1781  TIP3      H2             21.9878477914       -2.1735238859       31.7724883380  TIP3      1581            0.0000000000
     29660      1782  TIP3      OH2            26.7303984807       -2.8628704927       31.6900143753  TIP3      1582            0.0000000000
     29661      1782  TIP3      H1             26.2692634583       -2.3023620218       31.0478084766  TIP3      1582            0.0000000000
     29662      1782  TIP3      H2             26.8615107130       -2.2324425922       32.4309975753  TIP3      1582            0.0000000000
     29663      1783  TIP3      OH2            29.0162949030       -4.0636774294       32.7379122535  TIP3      1583            0.0000000000
     29664      1783  TIP3      H1             28.1678669946       -3.7804899946       32.3579603078  TIP3      1583            0.0000000000
     29665      1783  TIP3      H2             29.5020458653       -3.2281774644       32.6347319705  TIP3      1583            0.0000000000
     29666      1784  TIP3      OH2            31.6041863853       -2.4777593154       32.9491204758  TIP3      1584            0.0000000000
     29667      1784  TIP3      H1             31.5491403985       -1.5187166114       32.7196575001  TIP3      1584            0.0000000000
     29668      1784  TIP3      H2             31.8008231798       -2.8490943153       32.0671691970  TIP3      1584            0.0000000000
     29669      1785  TIP3      OH2            19.0112492587       -3.7130304548       30.3094814420  TIP3      1585            0.0000000000
     29670      1785  TIP3      H1             18.8951610720       -4.1149280423       31.2132314271  TIP3      1585            0.0000000000
     29671      1785  TIP3      H2             19.8768191901       -4.1053348002       30.0628764254  TIP3      1585            0.0000000000
     29672      1786  TIP3      OH2            21.0679782151       -4.9737232986       29.0454838985  TIP3      1586            0.0000000000
     29673      1786  TIP3      H1             20.9358949934       -5.9195832460       29.2820453167  TIP3      1586            0.0000000000
     29674      1786  TIP3      H2             21.9387763709       -4.8338162760       29.4907910185  TIP3      1586            0.0000000000
     29675      1787  TIP3      OH2            23.6641059918       -4.5054490922       29.9181801723  TIP3      1587            0.0000000000
     29676      1787  TIP3      H1             23.8589263630       -5.4302755472       29.6686219103  TIP3      1587            0.0000000000
     29677      1787  TIP3      H2             23.7342404594       -4.5538048879       30.8847292917  TIP3      1587            0.0000000000
     29678      1788  TIP3      OH2            27.1450203999      -18.8540213741       29.0679044903  TIP3      1588            0.0000000000
     29679      1788  TIP3      H1             26.4690312375      -19.4938920362       29.3480996690  TIP3      1588            0.0000000000
     29680      1788  TIP3      H2             27.6937282649      -19.3908729122       28.4852624149  TIP3      1588            0.0000000000
     29681      1789  TIP3      OH2            32.2833306528      -20.8089782363       29.1281248783  TIP3      1589            0.0000000000
     29682      1789  TIP3      H1             32.8913678850      -20.2152441565       28.6180125943  TIP3      1589            0.0000000000
     29683      1789  TIP3      H2             31.3974486309      -20.4487469600       28.9045838795  TIP3      1589            0.0000000000
     29684      1790  TIP3      OH2            33.9380187952      -19.5509577253       27.3879006917  TIP3      1590            0.0000000000
     29685      1790  TIP3      H1             34.6274683559      -20.1489926207       27.0157725380  TIP3      1590            0.0000000000
     29686      1790  TIP3      H2             34.4517524994      -18.7310960446       27.5603724477  TIP3      1590            0.0000000000
     29687      1791  TIP3      OH2            19.5237148023      -20.2365238688       26.9360644991  TIP3      1591            0.0000000000
     29688      1791  TIP3      H1             18.7360957847      -20.4338242621       26.4057658317  TIP3      1591            0.0000000000
     29689      1791  TIP3      H2             19.9963743073      -21.0891566117       26.8586679411  TIP3      1591            0.0000000000
     29690      1792  TIP3      OH2            18.2114862838      -20.4312308191       22.7020166927  TIP3      1592            0.0000000000
     29691      1792  TIP3      H1             18.7909967202      -19.9485392360       22.0538800438  TIP3      1592            0.0000000000
     29692      1792  TIP3      H2             17.7997262156      -19.6850282197       23.1415407776  TIP3      1592            0.0000000000
     29693      1793  TIP3      OH2            23.9801272311      -20.3112995099       26.7076887542  TIP3      1593            0.0000000000
     29694      1793  TIP3      H1             24.8820657795      -19.9522977715       26.6132597300  TIP3      1593            0.0000000000
     29695      1793  TIP3      H2             23.9587846651      -20.5231909023       27.6382600536  TIP3      1593            0.0000000000
     29696      1794  TIP3      OH2            29.7060121713      -20.2861435019       28.3153044038  TIP3      1594            0.0000000000
     29697      1794  TIP3      H1             29.6522105200      -20.1768619326       27.3561331474  TIP3      1594            0.0000000000
     29698      1794  TIP3      H2             29.3183730792      -21.1869027450       28.4478064292  TIP3      1594            0.0000000000
     29699      1795  TIP3      OH2            30.9744995293      -20.2347516191       23.9735925975  TIP3      1595            0.0000000000
     29700      1795  TIP3      H1             30.2087787040      -19.6508995217       23.8551091962  TIP3      1595            0.0000000000
     29701      1795  TIP3      H2             30.5529649281      -21.0929392272       24.2243151837  TIP3      1595            0.0000000000
     29702      1796  TIP3      OH2            18.2425382587       -4.4574492991       23.6224549776  TIP3      1596            0.0000000000
     29703      1796  TIP3      H1             17.5572609886       -4.6113484571       22.9289899492  TIP3      1596            0.0000000000
     29704      1796  TIP3      H2             18.1038521801       -3.5356786718       23.8159166301  TIP3      1596            0.0000000000
     29705      1797  TIP3      OH2            25.0661103093      -18.2841916898       23.5888872631  TIP3      1597            0.0000000000
     29706      1797  TIP3      H1             25.3948121689      -18.8651525816       24.2857833208  TIP3      1597            0.0000000000
     29707      1797  TIP3      H2             25.2593498990      -17.4117223741       23.9888088392  TIP3      1597            0.0000000000
     29708      1798  TIP3      OH2            33.7851287366       -3.6932889782       24.6946254695  TIP3      1598            0.0000000000
     29709      1798  TIP3      H1             33.5822635456       -4.4858721015       24.1472862787  TIP3      1598            0.0000000000
     29710      1798  TIP3      H2             33.7045269324       -2.9754401762       24.0316687877  TIP3      1598            0.0000000000
     29711      1799  TIP3      OH2            19.4216277970      -19.6985307658       36.3424005910  TIP3      1599            0.0000000000
     29712      1799  TIP3      H1             19.0293415508      -20.4725495962       36.7825383704  TIP3      1599            0.0000000000
     29713      1799  TIP3      H2             20.3207844748      -19.7112495407       36.7551444437  TIP3      1599            0.0000000000
     29714      1800  TIP3      OH2            21.3984426300      -20.3353391068       37.9673118305  TIP3      1600            0.0000000000
     29715      1800  TIP3      H1             22.3122689570      -20.6352171008       37.8010836656  TIP3      1600            0.0000000000
     29716      1800  TIP3      H2             21.0375420246      -21.1121907170       38.4272815174  TIP3      1600            0.0000000000
     29717      1801  TIP3      OH2            29.7915176595      -21.0142909678       38.1677422507  TIP3      1601            0.0000000000
     29718      1801  TIP3      H1             29.8995404835      -21.4929710112       39.0155150364  TIP3      1601            0.0000000000
     29719      1801  TIP3      H2             30.7033640424      -21.0348760838       37.8094460180  TIP3      1601            0.0000000000
     29720      1802  TIP3      OH2            33.0078404716       -4.9888750123       36.7853607241  TIP3      1602            0.0000000000
     29721      1802  TIP3      H1             32.2028371909       -5.0855981651       36.2335936805  TIP3      1602            0.0000000000
     29722      1802  TIP3      H2             32.9068777431       -4.0408293250       37.0078417606  TIP3      1602            0.0000000000
     29723      1803  TIP3      OH2            38.5636656886      -12.0896889642       31.9564921951  TIP3      1603            0.0000000000
     29724      1803  TIP3      H1             38.7534681614      -12.8694826364       32.5276553291  TIP3      1603            0.0000000000
     29725      1803  TIP3      H2             39.4304894074      -11.6532395698       31.9529984991  TIP3      1603            0.0000000000
     29726      1804  TIP3      OH2           -40.3934297693       -8.2589585550       30.6916250370  TIP3      1604            0.0000000000
     29727      1804  TIP3      H1            -40.6107970264       -8.7910165515       29.8992070574  TIP3      1604            0.0000000000
     29728      1804  TIP3      H2            -39.5363146314       -7.9276955561       30.4098598753  TIP3      1604            0.0000000000
     29729      1805  TIP3      OH2            36.2375392200      -14.1576919098       25.7763853076  TIP3      1605            0.0000000000
     29730      1805  TIP3      H1             35.8094540758      -13.2777984376       25.7538514441  TIP3      1605            0.0000000000
     29731      1805  TIP3      H2             35.6131137139      -14.6744134008       25.2625247743  TIP3      1605            0.0000000000
     29732      1806  TIP3      OH2            36.9434048025      -11.9373394952       27.9328376196  TIP3      1606            0.0000000000
     29733      1806  TIP3      H1             37.2134862341      -12.7465919340       28.4177180436  TIP3      1606            0.0000000000
     29734      1806  TIP3      H2             37.6841958634      -11.8344148752       27.3169571555  TIP3      1606            0.0000000000
     29735      1807  TIP3      OH2            37.5885930830      -14.4781641480       28.9853989840  TIP3      1607            0.0000000000
     29736      1807  TIP3      H1             38.2842351834      -14.9643313554       29.4676093771  TIP3      1607            0.0000000000
     29737      1807  TIP3      H2             37.7435455814      -14.7987201231       28.0854892435  TIP3      1607            0.0000000000
     29738      1808  TIP3      OH2            39.3705072929      -16.5767655780       30.2917762651  TIP3      1608            0.0000000000
     29739      1808  TIP3      H1             39.7666040474      -15.8012424425       30.7503234338  TIP3      1608            0.0000000000
     29740      1808  TIP3      H2             39.9470896297      -16.7020768822       29.5176073502  TIP3      1608            0.0000000000
     29741      1809  TIP3      OH2            38.9597776294      -11.6772590080       34.7572984802  TIP3      1609            0.0000000000
     29742      1809  TIP3      H1             39.2110932132      -10.9380828310       35.3463781226  TIP3      1609            0.0000000000
     29743      1809  TIP3      H2             38.1243432184      -11.3946584287       34.3631428919  TIP3      1609            0.0000000000
     29744      1810  TIP3      OH2            36.1313881609       -9.5274859730       33.6534732958  TIP3      1610            0.0000000000
     29745      1810  TIP3      H1             35.8084362584       -9.6175936837       32.7433752069  TIP3      1610            0.0000000000
     29746      1810  TIP3      H2             36.3318319220      -10.4679566801       33.8370851743  TIP3      1610            0.0000000000
     29747      1811  TIP3      OH2            36.0337463619       -6.8017196808       30.4381651602  TIP3      1611            0.0000000000
     29748      1811  TIP3      H1             36.9916286384       -6.9278824844       30.4078848035  TIP3      1611            0.0000000000
     29749      1811  TIP3      H2             35.9273452797       -5.9695507658       30.9179708761  TIP3      1611            0.0000000000
     29750      1812  TIP3      OH2            39.0310509280       -4.4011959050       26.4268501899  TIP3      1612            0.0000000000
     29751      1812  TIP3      H1             39.3157891086       -4.3819085797       27.3627787483  TIP3      1612            0.0000000000
     29752      1812  TIP3      H2             38.0778962382       -4.4494462633       26.4522893796  TIP3      1612            0.0000000000
     29753      1813  TIP3      OH2            38.4879618086       -8.1824417060       34.6017503609  TIP3      1613            0.0000000000
     29754      1813  TIP3      H1             38.7561468422       -8.6032863377       35.4391745941  TIP3      1613            0.0000000000
     29755      1813  TIP3      H2             37.6734599958       -8.6291930422       34.3322959497  TIP3      1613            0.0000000000
     29756      1814  TIP3      OH2            38.9284118902      -14.4930244385       33.5057633236  TIP3      1614            0.0000000000
     29757      1814  TIP3      H1             38.9659111553      -14.1555429438       34.4064974786  TIP3      1614            0.0000000000
     29758      1814  TIP3      H2             38.5219507097      -15.3645525302       33.6278044786  TIP3      1614            0.0000000000
     29759      1815  TIP3      OH2            35.5774001108      -17.3970559991       27.4260299718  TIP3      1615            0.0000000000
     29760      1815  TIP3      H1             36.2478674902      -17.4501029186       28.1529327685  TIP3      1615            0.0000000000
     29761      1815  TIP3      H2             36.0459869861      -17.8011836138       26.6889651541  TIP3      1615            0.0000000000
     29762      1816  TIP3      OH2            38.5497671245      -15.4232890665       26.3934430242  TIP3      1616            0.0000000000
     29763      1816  TIP3      H1             37.6236721771      -15.4223817151       26.1302511891  TIP3      1616            0.0000000000
     29764      1816  TIP3      H2             38.8950308169      -16.3338492206       26.3127842864  TIP3      1616            0.0000000000
     29765      1817  TIP3      OH2            39.0034828782       -9.6742285374       36.7549396365  TIP3      1617            0.0000000000
     29766      1817  TIP3      H1             39.6244827940       -9.5163130425       37.4483884017  TIP3      1617            0.0000000000
     29767      1817  TIP3      H2             38.1982695467       -9.6183130884       37.3120608856  TIP3      1617            0.0000000000
     29768      1818  TIP3      OH2            39.2035657501      -10.4177263992       29.1542746624  TIP3      1618            0.0000000000
     29769      1818  TIP3      H1             40.0753187038      -10.4026152047       28.7292212650  TIP3      1618            0.0000000000
     29770      1818  TIP3      H2             39.3659033731      -11.1019058551       29.8470912400  TIP3      1618            0.0000000000
     29771      1819  TIP3      OH2            36.3359269168      -11.9367378667       34.7868981186  TIP3      1619            0.0000000000
     29772      1819  TIP3      H1             36.6826340880      -12.4434724579       35.5502683471  TIP3      1619            0.0000000000
     29773      1819  TIP3      H2             35.8555802952      -12.6161754886       34.2757719814  TIP3      1619            0.0000000000
     29774      1820  TIP3      OH2            37.6009944028      -12.0646874095       21.3610360422  TIP3      1620            0.0000000000
     29775      1820  TIP3      H1             38.1723402218      -11.4450728815       21.8373538546  TIP3      1620            0.0000000000
     29776      1820  TIP3      H2             36.6959538581      -11.8397734177       21.6441201551  TIP3      1620            0.0000000000
     29777      1821  TIP3      OH2            38.0703054552      -17.2721468227       34.2852527852  TIP3      1621            0.0000000000
     29778      1821  TIP3      H1             37.1634853744      -16.9276947811       34.2025939953  TIP3      1621            0.0000000000
     29779      1821  TIP3      H2             37.9498324000      -18.1257458162       34.7264066137  TIP3      1621            0.0000000000
     29780      1822  TIP3      OH2            37.7119448373       -5.4792191335       32.7013509726  TIP3      1622            0.0000000000
     29781      1822  TIP3      H1             37.9457111637       -6.4203324668       32.7215157810  TIP3      1622            0.0000000000
     29782      1822  TIP3      H2             37.9808302808       -5.1884477186       33.5865194190  TIP3      1622            0.0000000000
     29783      1823  TIP3      OH2            38.8636846285      -10.1540238232       22.8077595494  TIP3      1623            0.0000000000
     29784      1823  TIP3      H1             38.4134763021       -9.8756768669       23.6116552024  TIP3      1623            0.0000000000
     29785      1823  TIP3      H2             39.4722587351       -9.4105232942       22.6758991915  TIP3      1623            0.0000000000
     29786      1824  TIP3      OH2            39.6472047294       -7.6840446116       21.8473778212  TIP3      1624            0.0000000000
     29787      1824  TIP3      H1             40.1188814367       -6.8634280816       22.0465367475  TIP3      1624            0.0000000000
     29788      1824  TIP3      H2             40.0343436928       -7.9281961739       21.0013998020  TIP3      1624            0.0000000000
     29789      1825  TIP3      OH2            37.8364245962      -14.7896312072       21.0320131047  TIP3      1625            0.0000000000
     29790      1825  TIP3      H1             37.8191120624      -13.8136082754       21.0459037753  TIP3      1625            0.0000000000
     29791      1825  TIP3      H2             37.0676107409      -15.0073924324       20.4965964886  TIP3      1625            0.0000000000
     29792      1826  TIP3      OH2            38.6511575654      -20.0743521090       29.6771614987  TIP3      1626            0.0000000000
     29793      1826  TIP3      H1             38.4781510814      -20.0324691449       28.7103585712  TIP3      1626            0.0000000000
     29794      1826  TIP3      H2             38.2858641018      -20.9362104204       29.9352796850  TIP3      1626            0.0000000000
     29795      1827  TIP3      OH2            37.4743582054       -6.3293800614       25.6408091763  TIP3      1627            0.0000000000
     29796      1827  TIP3      H1             36.7440937077       -5.7039621783       25.7348191994  TIP3      1627            0.0000000000
     29797      1827  TIP3      H2             38.1306833823       -5.7531747194       25.2049600377  TIP3      1627            0.0000000000
     29798      1828  TIP3      OH2            36.8476845966       -3.5450067916       37.0871745633  TIP3      1628            0.0000000000
     29799      1828  TIP3      H1             37.4626692162       -3.7423732507       37.8257909989  TIP3      1628            0.0000000000
     29800      1828  TIP3      H2             36.4298973196       -4.4057839455       36.9055928957  TIP3      1628            0.0000000000
     29801      1829  TIP3      OH2            36.7612426313       -9.7683068837       38.0801785492  TIP3      1629            0.0000000000
     29802      1829  TIP3      H1             36.9709474760      -10.6676894234       37.7648661023  TIP3      1629            0.0000000000
     29803      1829  TIP3      H2             36.0330375393       -9.4942093800       37.5038752329  TIP3      1629            0.0000000000
     29804      1830  TIP3      OH2            37.6766420063      -12.5152113262       37.4872321675  TIP3      1630            0.0000000000
     29805      1830  TIP3      H1             38.0141557542      -13.4050650507       37.3365633236  TIP3      1630            0.0000000000
     29806      1830  TIP3      H2             37.4210330982      -12.5446717371       38.4228865918  TIP3      1630            0.0000000000
     29807      1831  TIP3      OH2            38.4046490406      -17.0958898579       37.5928195563  TIP3      1631            0.0000000000
     29808      1831  TIP3      H1             38.6595594278      -17.8062595374       36.9711174945  TIP3      1631            0.0000000000
     29809      1831  TIP3      H2             38.4479645085      -17.5312874729       38.4648963738  TIP3      1631            0.0000000000
     29810      1832  TIP3      OH2            35.5247405573       -2.5136840890       26.2733058532  TIP3      1632            0.0000000000
     29811      1832  TIP3      H1             34.8283428044       -3.0042150840       25.7776347687  TIP3      1632            0.0000000000
     29812      1832  TIP3      H2             35.8227845848       -3.1792010172       26.9167865070  TIP3      1632            0.0000000000
     29813      1833  TIP3      OH2            36.3923096601       -4.4018036627       28.0900502724  TIP3      1633            0.0000000000
     29814      1833  TIP3      H1             36.0286197009       -5.2693075282       28.3116771727  TIP3      1633            0.0000000000
     29815      1833  TIP3      H2             36.6114071153       -4.0496645989       28.9747751766  TIP3      1633            0.0000000000
     29816      1834  TIP3      OH2            36.4455290394      -11.3100931268       30.6016370253  TIP3      1634            0.0000000000
     29817      1834  TIP3      H1             36.6353281623      -11.3940181958       29.6434948097  TIP3      1634            0.0000000000
     29818      1834  TIP3      H2             37.3416390043      -11.4959975298       30.9711744800  TIP3      1634            0.0000000000
     29819      1835  TIP3      OH2            36.0027091329      -15.9831619675       36.7703588213  TIP3      1635            0.0000000000
     29820      1835  TIP3      H1             36.9373931481      -16.1944141182       36.9583951602  TIP3      1635            0.0000000000
     29821      1835  TIP3      H2             35.5778374969      -16.8245024981       37.0276300334  TIP3      1635            0.0000000000
     29822      1836  TIP3      OH2            37.1594603648      -17.7051055173       29.6097304118  TIP3      1636            0.0000000000
     29823      1836  TIP3      H1             37.6989092308      -18.5008566377       29.8085916940  TIP3      1636            0.0000000000
     29824      1836  TIP3      H2             37.7944541353      -17.0531788986       29.9655576447  TIP3      1636            0.0000000000
     29825      1837  TIP3      OH2            35.5336606824      -14.7009429600       30.6275282055  TIP3      1637            0.0000000000
     29826      1837  TIP3      H1             36.1402934503      -14.9468111184       29.8927828242  TIP3      1637            0.0000000000
     29827      1837  TIP3      H2             35.9900477704      -13.9007517002       30.9215498070  TIP3      1637            0.0000000000
     29828      1838  TIP3      OH2            35.8616434394      -18.5234562191       24.6488166493  TIP3      1638            0.0000000000
     29829      1838  TIP3      H1             34.9255540921      -18.2409640388       24.6565032902  TIP3      1638            0.0000000000
     29830      1838  TIP3      H2             36.3333456621      -17.9126580111       24.1103508286  TIP3      1638            0.0000000000
     29831      1839  TIP3      OH2            35.8451926389      -19.8057752948       33.0175975831  TIP3      1639            0.0000000000
     29832      1839  TIP3      H1             35.1731193425      -19.9823552514       33.7026945057  TIP3      1639            0.0000000000
     29833      1839  TIP3      H2             35.4154694367      -19.1219262580       32.4710740422  TIP3      1639            0.0000000000
     29834      1840  TIP3      OH2            38.0940865814       -6.6299895590       37.2242896313  TIP3      1640            0.0000000000
     29835      1840  TIP3      H1             37.2941476790       -6.4140251024       36.7115196277  TIP3      1640            0.0000000000
     29836      1840  TIP3      H2             37.7407532963       -6.6490997111       38.1128489752  TIP3      1640            0.0000000000
     29837      1841  TIP3      OH2            38.3084598572       -2.4390227951       33.4757733687  TIP3      1641            0.0000000000
     29838      1841  TIP3      H1             37.6023834296       -1.9072437999       33.0710883751  TIP3      1641            0.0000000000
     29839      1841  TIP3      H2             38.0106036322       -2.5884690235       34.3750342684  TIP3      1641            0.0000000000
     29840      1842  TIP3      OH2            37.8114457843       -3.7361099534       30.3965847354  TIP3      1642            0.0000000000
     29841      1842  TIP3      H1             37.7735867553       -4.1362908366       31.2980536628  TIP3      1642            0.0000000000
     29842      1842  TIP3      H2             38.6748854653       -4.0158974134       30.0667875608  TIP3      1642            0.0000000000
     29843      1843  TIP3      OH2            38.0653261362      -20.1724926826       27.0526947711  TIP3      1643            0.0000000000
     29844      1843  TIP3      H1             37.4231987640      -20.4307926755       26.3784844439  TIP3      1643            0.0000000000
     29845      1843  TIP3      H2             38.7958777863      -20.7953453971       26.9244377217  TIP3      1643            0.0000000000
     29846      1844  TIP3      OH2            37.1179154783      -20.4922216136       22.6572050626  TIP3      1644            0.0000000000
     29847      1844  TIP3      H1             37.5865333501      -19.8838549643       22.0845007788  TIP3      1644            0.0000000000
     29848      1844  TIP3      H2             36.5621171105      -19.9612483588       23.2494325538  TIP3      1644            0.0000000000
     29849      1845  TIP3      OH2            37.0337914168       -4.5209408672       23.6156256133  TIP3      1645            0.0000000000
     29850      1845  TIP3      H1             36.3594986125       -4.4804794555       22.9103989369  TIP3      1645            0.0000000000
     29851      1845  TIP3      H2             37.0755243713       -3.5707161326       23.8035146137  TIP3      1645            0.0000000000
     29852      1846  TIP3      OH2            38.3237244975      -19.6834460779       36.4460664626  TIP3      1646            0.0000000000
     29853      1846  TIP3      H1             37.9094346279      -20.4974834552       36.7960145576  TIP3      1646            0.0000000000
     29854      1846  TIP3      H2             39.2572436824      -19.7735410921       36.6780390954  TIP3      1646            0.0000000000
     29855      1847  TIP3      OH2            38.9832557549       -3.4870016251       20.6534920676  TIP3      1647            0.0000000000
     29856      1847  TIP3      H1             38.5264686093       -3.2795150318       21.4835872738  TIP3      1647            0.0000000000
     29857      1847  TIP3      H2             39.6417455283       -4.1743469171       20.7812725746  TIP3      1647            0.0000000000
     29858      1848  TIP3      OH2           -27.9548896059        7.7820112859       26.7835117967  TIP3      1648            0.0000000000
     29859      1848  TIP3      H1            -27.9689989595        8.7587373822       26.7250400711  TIP3      1648            0.0000000000
     29860      1848  TIP3      H2            -28.6876526759        7.5341395216       26.1988902022  TIP3      1648            0.0000000000
     29861      1849  TIP3      OH2           -29.1408371991        7.0268370994       30.2566009864  TIP3      1649            0.0000000000
     29862      1849  TIP3      H1            -29.1095810786        6.3795735897       30.9783092979  TIP3      1649            0.0000000000
     29863      1849  TIP3      H2            -29.4391292093        6.4969886890       29.5056452847  TIP3      1649            0.0000000000
     29864      1850  TIP3      OH2           -36.5642209542        6.6163340269       31.7173437096  TIP3      1650            0.0000000000
     29865      1850  TIP3      H1            -36.6927796791        6.0255928098       32.5017025375  TIP3      1650            0.0000000000
     29866      1850  TIP3      H2            -36.0279669800        7.3062293123       32.1387230862  TIP3      1650            0.0000000000
     29867      1851  TIP3      OH2           -25.4242471405        9.9640289067       28.5607254473  TIP3      1651            0.0000000000
     29868      1851  TIP3      H1            -25.8390699473        9.2519908134       29.0558265132  TIP3      1651            0.0000000000
     29869      1851  TIP3      H2            -25.3961771614       10.6814115352       29.2217326025  TIP3      1651            0.0000000000
     29870      1852  TIP3      OH2           -35.8365844297       11.1311742169       30.3340696526  TIP3      1652            0.0000000000
     29871      1852  TIP3      H1            -36.1386763711       10.2771964168       29.9932434093  TIP3      1652            0.0000000000
     29872      1852  TIP3      H2            -34.8743775730       10.9849846564       30.3779906166  TIP3      1652            0.0000000000
     29873      1853  TIP3      OH2           -39.0867945550        4.7866409783       25.6649691368  TIP3      1653            0.0000000000
     29874      1853  TIP3      H1            -39.6088721051        5.5938398114       25.7715446616  TIP3      1653            0.0000000000
     29875      1853  TIP3      H2            -39.7810183414        4.1614047660       25.3962453379  TIP3      1653            0.0000000000
     29876      1854  TIP3      OH2           -38.3620625377        6.9932524717       28.0506652456  TIP3      1654            0.0000000000
     29877      1854  TIP3      H1            -38.2701311058        6.0847875603       28.3964287382  TIP3      1654            0.0000000000
     29878      1854  TIP3      H2            -37.7982650554        7.0275985071       27.2679195233  TIP3      1654            0.0000000000
     29879      1855  TIP3      OH2           -28.2933452421       15.1331991123       28.7903011481  TIP3      1655            0.0000000000
     29880      1855  TIP3      H1            -27.6509841317       14.4420221049       28.4975403773  TIP3      1655            0.0000000000
     29881      1855  TIP3      H2            -28.5163489586       14.7899654073       29.6597315749  TIP3      1655            0.0000000000
     29882      1856  TIP3      OH2           -30.7519938261        9.3934670185       30.7425255951  TIP3      1656            0.0000000000
     29883      1856  TIP3      H1            -30.3723758686        8.7987568869       30.0812098665  TIP3      1656            0.0000000000
     29884      1856  TIP3      H2            -29.9450683976        9.5811201190       31.2556460458  TIP3      1656            0.0000000000
     29885      1857  TIP3      OH2           -22.1223785112        1.0516877089       31.4430425307  TIP3      1657            0.0000000000
     29886      1857  TIP3      H1            -21.9681093522        1.6496782747       32.2180955676  TIP3      1657            0.0000000000
     29887      1857  TIP3      H2            -21.5592905711        1.5245490512       30.8078915250  TIP3      1657            0.0000000000
     29888      1858  TIP3      OH2           -27.5649898016        3.8895233851       31.0554368852  TIP3      1658            0.0000000000
     29889      1858  TIP3      H1            -27.3965336708        2.9310339655       31.0638104875  TIP3      1658            0.0000000000
     29890      1858  TIP3      H2            -27.6680530025        4.0293504515       30.0953391606  TIP3      1658            0.0000000000
     29891      1859  TIP3      OH2           -34.4865125653        1.9840659121       28.2830156453  TIP3      1659            0.0000000000
     29892      1859  TIP3      H1            -34.3318503356        2.7912957760       27.7640121421  TIP3      1659            0.0000000000
     29893      1859  TIP3      H2            -34.8337142065        1.3843599550       27.5851688850  TIP3      1659            0.0000000000
     29894      1860  TIP3      OH2           -26.6979355199        2.0397640091       26.6209720830  TIP3      1660            0.0000000000
     29895      1860  TIP3      H1            -26.0673533744        1.7783788702       27.3251059700  TIP3      1660            0.0000000000
     29896      1860  TIP3      H2            -26.1858538440        2.6627924829       26.0894996420  TIP3      1660            0.0000000000
     29897      1861  TIP3      OH2           -37.6786361864        4.4467840720       28.9709013125  TIP3      1661            0.0000000000
     29898      1861  TIP3      H1            -37.1461394905        3.7834258909       29.4486194703  TIP3      1661            0.0000000000
     29899      1861  TIP3      H2            -37.7478539327        4.0377931473       28.0919298707  TIP3      1661            0.0000000000
     29900      1862  TIP3      OH2           -32.7397915965        5.8911895708       28.3797170846  TIP3      1662            0.0000000000
     29901      1862  TIP3      H1            -31.9650904158        5.3810361769       28.7044802285  TIP3      1662            0.0000000000
     29902      1862  TIP3      H2            -33.0952512516        5.2337751319       27.7425709215  TIP3      1662            0.0000000000
     29903      1863  TIP3      OH2           -21.6928074268        2.4813214663       33.7283201461  TIP3      1663            0.0000000000
     29904      1863  TIP3      H1            -22.2960676270        3.2502918040       33.6229156988  TIP3      1663            0.0000000000
     29905      1863  TIP3      H2            -21.6581243913        2.4063372916       34.6914952222  TIP3      1663            0.0000000000
     29906      1864  TIP3      OH2           -35.5388535409        0.8836852657       32.3148996396  TIP3      1664            0.0000000000
     29907      1864  TIP3      H1            -35.8246191471        1.4288698720       31.5576110127  TIP3      1664            0.0000000000
     29908      1864  TIP3      H2            -36.2309647304        1.1115778424       32.9852800545  TIP3      1664            0.0000000000
     29909      1865  TIP3      OH2           -28.2450431117       10.3659462203       25.8573196212  TIP3      1665            0.0000000000
     29910      1865  TIP3      H1            -28.5384096542       10.1042548007       24.9758382687  TIP3      1665            0.0000000000
     29911      1865  TIP3      H2            -28.5630006087       11.2986634511       25.9121065373  TIP3      1665            0.0000000000
     29912      1866  TIP3      OH2           -33.0476837828        8.5373836961       32.5130383791  TIP3      1666            0.0000000000
     29913      1866  TIP3      H1            -33.7371446595        9.1755828108       32.7987044223  TIP3      1666            0.0000000000
     29914      1866  TIP3      H2            -32.3207710959        9.1353079273       32.2702758337  TIP3      1666            0.0000000000
     29915      1867  TIP3      OH2           -24.8294322008        1.3514861259       28.5908891672  TIP3      1667            0.0000000000
     29916      1867  TIP3      H1            -25.1760839255        0.6823704648       29.1889199305  TIP3      1667            0.0000000000
     29917      1867  TIP3      H2            -24.2716539534        1.8693945600       29.2032067489  TIP3      1667            0.0000000000
     29918      1868  TIP3      OH2           -36.0043696524        2.7581610601       30.3280243461  TIP3      1668            0.0000000000
     29919      1868  TIP3      H1            -35.3583489954        3.3903051502       30.7092245462  TIP3      1668            0.0000000000
     29920      1868  TIP3      H2            -35.4609754060        2.3069741792       29.6248215818  TIP3      1668            0.0000000000
     29921      1869  TIP3      OH2           -34.5788279036       10.5280137919       33.3538907438  TIP3      1669            0.0000000000
     29922      1869  TIP3      H1            -34.6208521505       11.4460609612       33.0334797624  TIP3      1669            0.0000000000
     29923      1869  TIP3      H2            -35.4630446556       10.4380700595       33.7850746494  TIP3      1669            0.0000000000
     29924      1870  TIP3      OH2           -38.3926514300       10.2159362167       24.1026694688  TIP3      1670            0.0000000000
     29925      1870  TIP3      H1            -38.7979343072       10.4757840580       23.2747513599  TIP3      1670            0.0000000000
     29926      1870  TIP3      H2            -38.4436571675       11.0174258968       24.6471369199  TIP3      1670            0.0000000000
     29927      1871  TIP3      OH2           -24.8941856423       11.8097293951       30.9234714963  TIP3      1671            0.0000000000
     29928      1871  TIP3      H1            -25.8627306506       11.9224458026       31.0409946188  TIP3      1671            0.0000000000
     29929      1871  TIP3      H2            -24.6241010835       12.7245885628       30.7183418444  TIP3      1671            0.0000000000
     29930      1872  TIP3      OH2           -24.5725361200        0.0740373626       32.2588754117  TIP3      1672            0.0000000000
     29931      1872  TIP3      H1            -25.2989377362        0.7183842314       32.2484739818  TIP3      1672            0.0000000000
     29932      1872  TIP3      H2            -23.8549906203        0.5728563178       31.8250413517  TIP3      1672            0.0000000000
     29933      1873  TIP3      OH2           -31.6052261951       -1.7887038262       29.7875374337  TIP3      1673            0.0000000000
     29934      1873  TIP3      H1            -31.7542898403       -2.7524910476       29.7040358315  TIP3      1673            0.0000000000
     29935      1873  TIP3      H2            -32.4872249412       -1.4822766477       30.0867702222  TIP3      1673            0.0000000000
     29936      1874  TIP3      OH2           -26.6171094685       13.5887731147       27.5189529444  TIP3      1674            0.0000000000
     29937      1874  TIP3      H1            -26.2049691319       12.8686076159       26.9992073657  TIP3      1674            0.0000000000
     29938      1874  TIP3      H2            -26.1986708994       14.3788850740       27.1174923112  TIP3      1674            0.0000000000
     29939      1875  TIP3      OH2           -25.4084701395       11.5318495596       26.0292750800  TIP3      1675            0.0000000000
     29940      1875  TIP3      H1            -25.7181990901       10.8366153482       25.4268591592  TIP3      1675            0.0000000000
     29941      1875  TIP3      H2            -25.3918219875       11.0318393751       26.8652608766  TIP3      1675            0.0000000000
     29942      1876  TIP3      OH2           -23.8071494771       10.1177344033       34.5222471318  TIP3      1676            0.0000000000
     29943      1876  TIP3      H1            -23.6574000750        9.4614630366       33.8054479370  TIP3      1676            0.0000000000
     29944      1876  TIP3      H2            -23.5982561678       10.9582962020       34.0760390669  TIP3      1676            0.0000000000
     29945      1877  TIP3      OH2           -29.2883657995        6.9784386136       24.2568436615  TIP3      1677            0.0000000000
     29946      1877  TIP3      H1            -30.0054375516        7.5769058749       23.9549445343  TIP3      1677            0.0000000000
     29947      1877  TIP3      H2            -28.6045284911        7.1551426536       23.6053045690  TIP3      1677            0.0000000000
     29948      1878  TIP3      OH2           -21.9163523821        6.4298539632       32.5653577625  TIP3      1678            0.0000000000
     29949      1878  TIP3      H1            -22.5741476457        7.1536063622       32.6044339702  TIP3      1678            0.0000000000
     29950      1878  TIP3      H2            -21.4211091119        6.6612110647       31.7586991166  TIP3      1678            0.0000000000
     29951      1879  TIP3      OH2           -25.8689967504        7.1688037961       25.1765078946  TIP3      1679            0.0000000000
     29952      1879  TIP3      H1            -26.5792088445        7.4607871085       25.7935983416  TIP3      1679            0.0000000000
     29953      1879  TIP3      H2            -25.3872728907        6.5664649248       25.7553090677  TIP3      1679            0.0000000000
     29954      1880  TIP3      OH2           -25.9281656653        5.3789762392       34.3336478398  TIP3      1680            0.0000000000
     29955      1880  TIP3      H1            -25.9208025935        6.1987219266       34.8552683944  TIP3      1680            0.0000000000
     29956      1880  TIP3      H2            -26.5575983766        5.6709220226       33.6415762374  TIP3      1680            0.0000000000
     29957      1881  TIP3      OH2           -34.3080700406        7.7949243113       27.2100120368  TIP3      1681            0.0000000000
     29958      1881  TIP3      H1            -34.5706618842        7.5351160934       26.2852407984  TIP3      1681            0.0000000000
     29959      1881  TIP3      H2            -33.5199157259        7.2259285496       27.3507076257  TIP3      1681            0.0000000000
     29960      1882  TIP3      OH2           -32.9526125206       11.2185373375       29.8148875544  TIP3      1682            0.0000000000
     29961      1882  TIP3      H1            -32.9126322411       10.7556645545       28.9697818860  TIP3      1682            0.0000000000
     29962      1882  TIP3      H2            -32.1370379821       10.9157556852       30.2561828200  TIP3      1682            0.0000000000
     29963      1883  TIP3      OH2           -33.7911208727        6.6221537238       30.8886555016  TIP3      1683            0.0000000000
     29964      1883  TIP3      H1            -33.1523929036        6.7643969916       30.1746701443  TIP3      1683            0.0000000000
     29965      1883  TIP3      H2            -33.4909167908        7.3268045112       31.5267980138  TIP3      1683            0.0000000000
     29966      1884  TIP3      OH2           -27.5045313507       12.1950280983       31.4906414204  TIP3      1684            0.0000000000
     29967      1884  TIP3      H1            -27.7879288365       12.8308635086       32.1526971118  TIP3      1684            0.0000000000
     29968      1884  TIP3      H2            -27.7534846564       11.3414465439       31.9156079446  TIP3      1684            0.0000000000
     29969      1885  TIP3      OH2           -32.9656640895       11.0499757486       35.4776371688  TIP3      1685            0.0000000000
     29970      1885  TIP3      H1            -33.3782644427       11.7905380945       35.9679245653  TIP3      1685            0.0000000000
     29971      1885  TIP3      H2            -33.6397324885       10.8503302224       34.7818604380  TIP3      1685            0.0000000000
     29972      1886  TIP3      OH2           -35.9427893444        7.3119532791       34.5823131952  TIP3      1686            0.0000000000
     29973      1886  TIP3      H1            -35.9518974710        7.9041531993       35.3549167714  TIP3      1686            0.0000000000
     29974      1886  TIP3      H2            -36.9159126036        7.2267126204       34.4563794840  TIP3      1686            0.0000000000
     29975      1887  TIP3      OH2           -29.2534717289       13.1354402537       26.3448645441  TIP3      1687            0.0000000000
     29976      1887  TIP3      H1            -28.8227273112       13.4506741077       27.1454980993  TIP3      1687            0.0000000000
     29977      1887  TIP3      H2            -29.8259220357       13.8757911565       26.1123883293  TIP3      1687            0.0000000000
     29978      1888  TIP3      OH2           -34.7170379321       13.0714996604       36.2313098055  TIP3      1688            0.0000000000
     29979      1888  TIP3      H1            -34.7764070761       12.9888001673       35.2607956118  TIP3      1688            0.0000000000
     29980      1888  TIP3      H2            -35.6484328959       12.9624883661       36.4934294748  TIP3      1688            0.0000000000
     29981      1889  TIP3      OH2           -35.2649303046        6.9135299832       24.7575500749  TIP3      1689            0.0000000000
     29982      1889  TIP3      H1            -35.5396385598        7.6842853569       24.2006702463  TIP3      1689            0.0000000000
     29983      1889  TIP3      H2            -35.9301897835        6.2632358153       24.5071845565  TIP3      1689            0.0000000000
     29984      1890  TIP3      OH2           -39.0166789405        9.3156256043       33.5330488135  TIP3      1690            0.0000000000
     29985      1890  TIP3      H1            -39.6210658653        9.3240279070       32.7702390435  TIP3      1690            0.0000000000
     29986      1890  TIP3      H2            -39.1462070743        8.4122499544       33.8355466033  TIP3      1690            0.0000000000
     29987      1891  TIP3      OH2           -38.9484027269       12.6841318930       30.1611697510  TIP3      1691            0.0000000000
     29988      1891  TIP3      H1            -38.3179198330       12.0175127818       30.4565929173  TIP3      1691            0.0000000000
     29989      1891  TIP3      H2            -39.4581157810       12.8358063302       30.9781526945  TIP3      1691            0.0000000000
     29990      1892  TIP3      OH2           -21.1864615853       12.7675770136       36.1050561481  TIP3      1692            0.0000000000
     29991      1892  TIP3      H1            -21.3058872579       11.8070510013       36.0774451711  TIP3      1692            0.0000000000
     29992      1892  TIP3      H2            -22.0607286241       13.0139994050       36.4905379487  TIP3      1692            0.0000000000
     29993      1893  TIP3      OH2           -30.2311542940       12.3050514541       34.9657732001  TIP3      1693            0.0000000000
     29994      1893  TIP3      H1            -30.1717471405       13.1472169705       35.4753816918  TIP3      1693            0.0000000000
     29995      1893  TIP3      H2            -31.1038729467       11.9464251007       35.2175105829  TIP3      1693            0.0000000000
     29996      1894  TIP3      OH2           -29.8109010047       16.0449282231       24.7386418464  TIP3      1694            0.0000000000
     29997      1894  TIP3      H1            -29.8765356585       16.0015407567       23.7652905693  TIP3      1694            0.0000000000
     29998      1894  TIP3      H2            -29.7686772378       17.0006909423       24.9247280858  TIP3      1694            0.0000000000
     29999      1895  TIP3      OH2           -36.1734772454       14.9478135119       26.5828688389  TIP3      1695            0.0000000000
     30000      1895  TIP3      H1            -36.0011637732       14.5064661427       27.4428061676  TIP3      1695            0.0000000000
     30001      1895  TIP3      H2            -36.9953786430       14.5087007461       26.3133548586  TIP3      1695            0.0000000000
     30002      1896  TIP3      OH2           -27.0560670565       15.2524859240       24.5609588968  TIP3      1696            0.0000000000
     30003      1896  TIP3      H1            -28.0222672414       15.2769492611       24.6990116243  TIP3      1696            0.0000000000
     30004      1896  TIP3      H2            -26.8125991755       14.4548826327       25.0521997850  TIP3      1696            0.0000000000
     30005      1897  TIP3      OH2           -24.0394272350        4.2216026188       36.5593376979  TIP3      1697            0.0000000000
     30006      1897  TIP3      H1            -24.5195333327        4.6799884447       35.8519694310  TIP3      1697            0.0000000000
     30007      1897  TIP3      H2            -24.0585181200        3.3039274051       36.2613921367  TIP3      1697            0.0000000000
     30008      1898  TIP3      OH2           -36.9229376952       10.6770920733       34.5736366278  TIP3      1698            0.0000000000
     30009      1898  TIP3      H1            -36.7296950595       10.2810748056       35.4472737704  TIP3      1698            0.0000000000
     30010      1898  TIP3      H2            -37.7877432876       10.2620809029       34.3452634330  TIP3      1698            0.0000000000
     30011      1899  TIP3      OH2           -34.2092906753       -0.8695509870       30.5169804929  TIP3      1699            0.0000000000
     30012      1899  TIP3      H1            -35.1196018156       -1.0058562199       30.1629175782  TIP3      1699            0.0000000000
     30013      1899  TIP3      H2            -34.3516968946       -0.0493748752       31.0155755435  TIP3      1699            0.0000000000
     30014      1900  TIP3      OH2           -29.5751464435       -1.2200655075       33.8855790660  TIP3      1700            0.0000000000
     30015      1900  TIP3      H1            -29.1851107854       -1.6420772251       34.6747734597  TIP3      1700            0.0000000000
     30016      1900  TIP3      H2            -30.5474447727       -1.3335839471       34.0346042181  TIP3      1700            0.0000000000
     30017      1901  TIP3      OH2           -26.2901218052        2.6272285254       34.7837651134  TIP3      1701            0.0000000000
     30018      1901  TIP3      H1            -26.8538413383        2.4143663038       35.5686737693  TIP3      1701            0.0000000000
     30019      1901  TIP3      H2            -26.4739562929        3.5561298996       34.5612169968  TIP3      1701            0.0000000000
     30020      1902  TIP3      OH2           -34.1284350685        4.0625483121       31.7449503891  TIP3      1702            0.0000000000
     30021      1902  TIP3      H1            -34.8147224483        4.0506714973       32.4414934518  TIP3      1702            0.0000000000
     30022      1902  TIP3      H2            -34.1394789935        5.0069917386       31.4947542977  TIP3      1702            0.0000000000
     30023      1903  TIP3      OH2           -34.1693574457        4.2490754067       26.6552050359  TIP3      1703            0.0000000000
     30024      1903  TIP3      H1            -35.0909073664        3.9451403394       26.4909613757  TIP3      1703            0.0000000000
     30025      1903  TIP3      H2            -33.7645903852        3.9194548859       25.8155485097  TIP3      1703            0.0000000000
     30026      1904  TIP3      OH2           -28.6369758839        4.7113255628       25.4285873998  TIP3      1704            0.0000000000
     30027      1904  TIP3      H1            -29.0454228317        5.5282404653       25.0662418664  TIP3      1704            0.0000000000
     30028      1904  TIP3      H2            -27.9741739769        4.5012124288       24.7498660039  TIP3      1704            0.0000000000
     30029      1905  TIP3      OH2           -29.5860888320        4.9186868355       36.8517366497  TIP3      1705            0.0000000000
     30030      1905  TIP3      H1            -30.1121227729        4.1407155630       37.1584144505  TIP3      1705            0.0000000000
     30031      1905  TIP3      H2            -28.7476095385        4.7982757381       37.3279636486  TIP3      1705            0.0000000000
     30032      1906  TIP3      OH2           -27.6015492530        4.2021826299       28.2414433432  TIP3      1706            0.0000000000
     30033      1906  TIP3      H1            -27.8947137534        4.7574371164       27.4983698056  TIP3      1706            0.0000000000
     30034      1906  TIP3      H2            -27.5168612296        3.3450389859       27.7835719395  TIP3      1706            0.0000000000
     30035      1907  TIP3      OH2           -36.4459879687        4.3330548784       33.4545839865  TIP3      1707            0.0000000000
     30036      1907  TIP3      H1            -36.4501999913        4.7557018429       34.3330824733  TIP3      1707            0.0000000000
     30037      1907  TIP3      H2            -36.9370878989        3.5172637349       33.6606162274  TIP3      1707            0.0000000000
     30038      1908  TIP3      OH2           -39.7886944247        1.4560372873       27.3887658649  TIP3      1708            0.0000000000
     30039      1908  TIP3      H1            -39.1413211825        1.3397168193       28.1100066665  TIP3      1708            0.0000000000
     30040      1908  TIP3      H2            -39.3884235293        0.9707379507       26.6555720158  TIP3      1708            0.0000000000
     30041      1909  TIP3      OH2           -38.6347163602        2.2093154657       22.8445209041  TIP3      1709            0.0000000000
     30042      1909  TIP3      H1            -38.1453496553        2.7939630312       22.2480843004  TIP3      1709            0.0000000000
     30043      1909  TIP3      H2            -39.3485147799        2.7786412041       23.1465096131  TIP3      1709            0.0000000000
     30044      1910  TIP3      OH2           -28.4083957296        5.7824035773       32.8121929115  TIP3      1710            0.0000000000
     30045      1910  TIP3      H1            -28.0254973429        5.0951219889       32.2302812877  TIP3      1710            0.0000000000
     30046      1910  TIP3      H2            -28.8757307927        5.2547117923       33.4844995332  TIP3      1710            0.0000000000
     30047      1911  TIP3      OH2           -31.6301397015        1.8239565907       27.6941194914  TIP3      1711            0.0000000000
     30048      1911  TIP3      H1            -32.5633321628        1.7381395527       27.9717204061  TIP3      1711            0.0000000000
     30049      1911  TIP3      H2            -31.1307230764        1.5923784307       28.4900441984  TIP3      1711            0.0000000000
     30050      1912  TIP3      OH2           -36.7630717242        3.3296746240       26.4868072598  TIP3      1712            0.0000000000
     30051      1912  TIP3      H1            -37.6691785966        3.4467922149       26.1436617468  TIP3      1712            0.0000000000
     30052      1912  TIP3      H2            -36.5287533999        2.4491859130       26.1360858238  TIP3      1712            0.0000000000
     30053      1913  TIP3      OH2           -33.1958113094        3.4098774665       24.1713018355  TIP3      1713            0.0000000000
     30054      1913  TIP3      H1            -32.2198763008        3.4083295919       24.3139727029  TIP3      1713            0.0000000000
     30055      1913  TIP3      H2            -33.3523960315        4.0605933217       23.4743041569  TIP3      1713            0.0000000000
     30056      1914  TIP3      OH2           -27.1916947298        0.9858818686       30.8826856786  TIP3      1714            0.0000000000
     30057      1914  TIP3      H1            -27.8762767849        1.0381286038       31.5857989633  TIP3      1714            0.0000000000
     30058      1914  TIP3      H2            -27.7219639973        0.7504336740       30.1066697730  TIP3      1714            0.0000000000
     30059      1915  TIP3      OH2           -24.0008024665       16.6359293637       37.2190126152  TIP3      1715            0.0000000000
     30060      1915  TIP3      H1            -23.7301381413       17.0136020036       36.3650202942  TIP3      1715            0.0000000000
     30061      1915  TIP3      H2            -23.2756943348       16.9565583916       37.7767076668  TIP3      1715            0.0000000000
     30062      1916  TIP3      OH2           -36.3085588980        9.1035324291       36.8031501901  TIP3      1716            0.0000000000
     30063      1916  TIP3      H1            -35.5712402223        9.3415859343       37.3951358367  TIP3      1716            0.0000000000
     30064      1916  TIP3      H2            -37.0745751920        9.1882521499       37.4035507156  TIP3      1716            0.0000000000
     30065      1917  TIP3      OH2           -30.3603787858        4.5091306857       29.5260890757  TIP3      1717            0.0000000000
     30066      1917  TIP3      H1            -29.7311851937        3.9872743013       29.0068423937  TIP3      1717            0.0000000000
     30067      1917  TIP3      H2            -30.4518448020        3.9697594274       30.3269576759  TIP3      1717            0.0000000000
     30068      1918  TIP3      OH2           -35.3235485131        0.6937614763       25.9629116241  TIP3      1718            0.0000000000
     30069      1918  TIP3      H1            -35.6195881271       -0.2350288695       25.9892330999  TIP3      1718            0.0000000000
     30070      1918  TIP3      H2            -34.5289937745        0.5944082255       25.4233763521  TIP3      1718            0.0000000000
     30071      1919  TIP3      OH2           -31.6855495927        2.8547755209       31.9404825269  TIP3      1719            0.0000000000
     30072      1919  TIP3      H1            -32.5134860429        3.3538184156       32.0632197706  TIP3      1719            0.0000000000
     30073      1919  TIP3      H2            -31.1301735804        3.1941008401       32.6691160475  TIP3      1719            0.0000000000
     30074      1920  TIP3      OH2           -31.0737063453        8.9966267517       23.6477025981  TIP3      1720            0.0000000000
     30075      1920  TIP3      H1            -31.9206506837        8.6133627514       23.3141570148  TIP3      1720            0.0000000000
     30076      1920  TIP3      H2            -31.3286401725        9.2207830535       24.5663904318  TIP3      1720            0.0000000000
     30077      1921  TIP3      OH2           -23.9057904841        8.2705443522       32.4584547285  TIP3      1721            0.0000000000
     30078      1921  TIP3      H1            -23.3443195985        8.7540462287       31.8252100068  TIP3      1721            0.0000000000
     30079      1921  TIP3      H2            -24.7666976505        8.3142377921       31.9954877203  TIP3      1721            0.0000000000
     30080      1922  TIP3      OH2           -27.2681043493        1.8659360883       21.8597792326  TIP3      1722            0.0000000000
     30081      1922  TIP3      H1            -28.2008883668        2.0498211653       21.6714592894  TIP3      1722            0.0000000000
     30082      1922  TIP3      H2            -26.9404544715        2.7427937765       22.1044900226  TIP3      1722            0.0000000000
     30083      1923  TIP3      OH2           -29.6051274444        9.3388338209       34.8998050224  TIP3      1723            0.0000000000
     30084      1923  TIP3      H1            -29.9552061121        8.9091332637       35.6868817853  TIP3      1723            0.0000000000
     30085      1923  TIP3      H2            -29.8594786413       10.2606846188       35.0082658028  TIP3      1723            0.0000000000
     30086      1924  TIP3      OH2           -26.5610678846        3.8402804617       23.5337450794  TIP3      1724            0.0000000000
     30087      1924  TIP3      H1            -25.6621173073        3.6637254981       23.8679131542  TIP3      1724            0.0000000000
     30088      1924  TIP3      H2            -26.4691532501        4.5800440110       22.9470295001  TIP3      1724            0.0000000000
     30089      1925  TIP3      OH2           -36.0008137323        8.4715625450       29.4400970997  TIP3      1725            0.0000000000
     30090      1925  TIP3      H1            -35.3189556386        8.4586244918       28.7392134936  TIP3      1725            0.0000000000
     30091      1925  TIP3      H2            -35.9870368045        7.6683906715       29.9831325805  TIP3      1725            0.0000000000
     30092      1926  TIP3      OH2           -28.9684782937       10.4983258832       22.7218798870  TIP3      1726            0.0000000000
     30093      1926  TIP3      H1            -29.3220745678       11.3657022413       23.0144555567  TIP3      1726            0.0000000000
     30094      1926  TIP3      H2            -29.7493559692        9.9329897302       22.8880921862  TIP3      1726            0.0000000000
     30095      1927  TIP3      OH2           -38.4531572721        6.4864895367       34.6116554266  TIP3      1727            0.0000000000
     30096      1927  TIP3      H1            -38.6629638160        6.4071333853       35.5651553952  TIP3      1727            0.0000000000
     30097      1927  TIP3      H2            -39.3854499266        6.3929268293       34.3064773522  TIP3      1727            0.0000000000
     30098      1928  TIP3      OH2           -31.9828478233        6.4301921091       36.8861933128  TIP3      1728            0.0000000000
     30099      1928  TIP3      H1            -32.3034772329        6.1121490689       36.0337110875  TIP3      1728            0.0000000000
     30100      1928  TIP3      H2            -31.0619137905        6.0999261287       36.8909301212  TIP3      1728            0.0000000000
     30101      1929  TIP3      OH2           -27.2956865836       11.7609177425       34.8490855582  TIP3      1729            0.0000000000
     30102      1929  TIP3      H1            -28.2209740686       11.9391631709       34.6151954536  TIP3      1729            0.0000000000
     30103      1929  TIP3      H2            -27.3293495471       12.0542354131       35.7796633680  TIP3      1729            0.0000000000
     30104      1930  TIP3      OH2           -21.4590240542        4.1006008866       22.9142667506  TIP3      1730            0.0000000000
     30105      1930  TIP3      H1            -22.1192868467        3.7895476621       22.2716672735  TIP3      1730            0.0000000000
     30106      1930  TIP3      H2            -21.5035406390        5.0888637985       22.7896864340  TIP3      1730            0.0000000000
     30107      1931  TIP3      OH2           -21.6433409189        9.7944098200       36.0470106739  TIP3      1731            0.0000000000
     30108      1931  TIP3      H1            -22.5336028243       10.0230938702       35.6784911851  TIP3      1731            0.0000000000
     30109      1931  TIP3      H2            -21.0974663459        9.7501675627       35.2329975815  TIP3      1731            0.0000000000
     30110      1932  TIP3      OH2           -26.1308752560        7.5851057658       30.7394515832  TIP3      1732            0.0000000000
     30111      1932  TIP3      H1            -27.0707900112        7.3771544987       30.6275053557  TIP3      1732            0.0000000000
     30112      1932  TIP3      H2            -25.6994870761        6.8258640677       30.3033078767  TIP3      1732            0.0000000000
     30113      1933  TIP3      OH2           -33.6277511557       11.9175639111       26.8479446254  TIP3      1733            0.0000000000
     30114      1933  TIP3      H1            -33.1175089304       12.7184057415       26.6377027592  TIP3      1733            0.0000000000
     30115      1933  TIP3      H2            -34.5052048904       12.1562000181       26.5194110067  TIP3      1733            0.0000000000
     30116      1934  TIP3      OH2           -32.1989008591        9.5598987022       26.4013282255  TIP3      1734            0.0000000000
     30117      1934  TIP3      H1            -32.4776284853       10.5010124010       26.4240148392  TIP3      1734            0.0000000000
     30118      1934  TIP3      H2            -32.9559966115        9.1188636515       26.8027786330  TIP3      1734            0.0000000000
     30119      1935  TIP3      OH2           -31.7571661586       13.7682831450       32.7727209192  TIP3      1735            0.0000000000
     30120      1935  TIP3      H1            -31.2952288278       14.5706866229       32.4800263326  TIP3      1735            0.0000000000
     30121      1935  TIP3      H2            -31.1286167846       13.4222327914       33.4333126300  TIP3      1735            0.0000000000
     30122      1936  TIP3      OH2           -33.5251976892       14.5595377264       25.9193726822  TIP3      1736            0.0000000000
     30123      1936  TIP3      H1            -34.4847778060       14.7190931378       26.0312439882  TIP3      1736            0.0000000000
     30124      1936  TIP3      H2            -33.1547435518       15.4061639520       26.2277103851  TIP3      1736            0.0000000000
     30125      1937  TIP3      OH2           -28.2365629603        9.7553131886       32.3820247616  TIP3      1737            0.0000000000
     30126      1937  TIP3      H1            -28.5482362713        9.5699617327       33.2923989781  TIP3      1737            0.0000000000
     30127      1937  TIP3      H2            -27.5859906847        9.0537069409       32.2185084300  TIP3      1737            0.0000000000
     30128      1938  TIP3      OH2           -25.9633646549       10.6623259632       21.4485466063  TIP3      1738            0.0000000000
     30129      1938  TIP3      H1            -25.6272867048       10.4271516020       22.3312519449  TIP3      1738            0.0000000000
     30130      1938  TIP3      H2            -26.9165222576       10.7024809396       21.5957269175  TIP3      1738            0.0000000000
     30131      1939  TIP3      OH2           -25.4025653695       14.3447916507       34.8726926540  TIP3      1739            0.0000000000
     30132      1939  TIP3      H1            -26.0969975882       13.8521380919       34.3957483670  TIP3      1739            0.0000000000
     30133      1939  TIP3      H2            -25.2222252035       15.0457537265       34.2114809647  TIP3      1739            0.0000000000
     30134      1940  TIP3      OH2           -37.3207295738        1.6405011553       34.2646168006  TIP3      1740            0.0000000000
     30135      1940  TIP3      H1            -38.2281818367        1.9745695505       34.2632958539  TIP3      1740            0.0000000000
     30136      1940  TIP3      H2            -37.4322778190        0.7685252453       34.6769009238  TIP3      1740            0.0000000000
     30137      1941  TIP3      OH2           -25.0885270039        9.4117719213       23.6973709055  TIP3      1741            0.0000000000
     30138      1941  TIP3      H1            -25.3525681812        8.6727788939       24.2841747631  TIP3      1741            0.0000000000
     30139      1941  TIP3      H2            -24.1641011768        9.5526094101       23.9561737200  TIP3      1741            0.0000000000
     30140      1942  TIP3      OH2           -37.7439949430       13.3829150037       32.6936357061  TIP3      1742            0.0000000000
     30141      1942  TIP3      H1            -37.4237690766       12.4718492225       32.6915417191  TIP3      1742            0.0000000000
     30142      1942  TIP3      H2            -37.4863177610       13.6723362208       33.5724356926  TIP3      1742            0.0000000000
     30143      1943  TIP3      OH2           -36.4721642612        8.6885868638       22.9053698771  TIP3      1743            0.0000000000
     30144      1943  TIP3      H1            -37.1868848576        9.0931365337       23.4393987911  TIP3      1743            0.0000000000
     30145      1943  TIP3      H2            -35.9317255254        9.4391048498       22.6172362615  TIP3      1743            0.0000000000
     30146      1944  TIP3      OH2           -28.6109352372        1.3721563192       33.2286259115  TIP3      1744            0.0000000000
     30147      1944  TIP3      H1            -27.8973188896        1.4332300259       33.8726265386  TIP3      1744            0.0000000000
     30148      1944  TIP3      H2            -28.9959908168        0.4969081215       33.4344298681  TIP3      1744            0.0000000000
     30149      1945  TIP3      OH2           -27.7214425905        0.8555065318       24.3064347256  TIP3      1745            0.0000000000
     30150      1945  TIP3      H1            -27.6999378806        1.4303216445       23.5085352801  TIP3      1745            0.0000000000
     30151      1945  TIP3      H2            -27.3549734777        1.4521613406       24.9750322203  TIP3      1745            0.0000000000
     30152      1946  TIP3      OH2           -30.1707756401       13.1007162732       23.1211431536  TIP3      1746            0.0000000000
     30153      1946  TIP3      H1            -31.0177199496       13.5846553145       23.2095029995  TIP3      1746            0.0000000000
     30154      1946  TIP3      H2            -29.6609121652       13.6482979421       22.5152275529  TIP3      1746            0.0000000000
     30155      1947  TIP3      OH2           -30.6883821354        2.7654502824       25.1245290087  TIP3      1747            0.0000000000
     30156      1947  TIP3      H1            -29.8477726681        3.2546129414       25.1676473347  TIP3      1747            0.0000000000
     30157      1947  TIP3      H2            -30.9070901797        2.5334986482       26.0450559868  TIP3      1747            0.0000000000
     30158      1948  TIP3      OH2           -30.0842136005        3.7195897554       34.3302766671  TIP3      1748            0.0000000000
     30159      1948  TIP3      H1            -30.0088294978        4.2736927076       35.1288149859  TIP3      1748            0.0000000000
     30160      1948  TIP3      H2            -29.4221940159        3.0233346405       34.4222205529  TIP3      1748            0.0000000000
     30161      1949  TIP3      OH2           -29.7096727871       -0.2535849037       26.0711396337  TIP3      1749            0.0000000000
     30162      1949  TIP3      H1            -30.1495775296        0.4118018580       26.6231133791  TIP3      1749            0.0000000000
     30163      1949  TIP3      H2            -29.1268081335        0.3434472326       25.5523555826  TIP3      1749            0.0000000000
     30164      1950  TIP3      OH2           -32.7479700707       14.1847635557       23.1297209199  TIP3      1750            0.0000000000
     30165      1950  TIP3      H1            -32.6681768657       15.0038022959       22.6475905311  TIP3      1750            0.0000000000
     30166      1950  TIP3      H2            -33.0803331866       14.4502641334       24.0081803547  TIP3      1750            0.0000000000
     30167      1951  TIP3      OH2           -34.1209343019        0.8271406424       22.7945151284  TIP3      1751            0.0000000000
     30168      1951  TIP3      H1            -34.1648561348        1.7537648911       23.0937148346  TIP3      1751            0.0000000000
     30169      1951  TIP3      H2            -33.1950401197        0.6291039396       22.9907529981  TIP3      1751            0.0000000000
     30170      1952  TIP3      OH2           -23.9095373807        1.5885046040       35.1791868487  TIP3      1752            0.0000000000
     30171      1952  TIP3      H1            -24.8365584381        1.9056426449       35.0518410534  TIP3      1752            0.0000000000
     30172      1952  TIP3      H2            -23.6033263128        1.5878157763       34.2589080786  TIP3      1752            0.0000000000
     30173      1953  TIP3      OH2           -25.3025471255        5.3727261267       29.2011424059  TIP3      1753            0.0000000000
     30174      1953  TIP3      H1            -26.1182213952        4.9270485158       28.8977551448  TIP3      1753            0.0000000000
     30175      1953  TIP3      H2            -24.8131781782        4.6803438473       29.6947110084  TIP3      1753            0.0000000000
     30176      1954  TIP3      OH2           -24.2308758285       14.6389668332       30.8496880055  TIP3      1754            0.0000000000
     30177      1954  TIP3      H1            -24.3177528318       15.3166595453       30.1531430025  TIP3      1754            0.0000000000
     30178      1954  TIP3      H2            -23.2655504743       14.6880516709       31.0226606149  TIP3      1754            0.0000000000
     30179      1955  TIP3      OH2           -36.6975159804       -1.2494406284       29.6379623087  TIP3      1755            0.0000000000
     30180      1955  TIP3      H1            -36.9351623745       -1.2462907724       28.6815961107  TIP3      1755            0.0000000000
     30181      1955  TIP3      H2            -37.1676504691       -2.0692566711       29.9105075385  TIP3      1755            0.0000000000
     30182      1956  TIP3      OH2           -37.7626350771       12.6886854587       25.8218761275  TIP3      1756            0.0000000000
     30183      1956  TIP3      H1            -38.6206740372       13.1328743345       25.7547400483  TIP3      1756            0.0000000000
     30184      1956  TIP3      H2            -37.2953608278       13.1391950034       25.0971302603  TIP3      1756            0.0000000000
     30185      1957  TIP3      OH2           -38.5452954776       15.3533498963       37.1014963511  TIP3      1757            0.0000000000
     30186      1957  TIP3      H1            -37.9496870263       15.1157864197       37.8335261022  TIP3      1757            0.0000000000
     30187      1957  TIP3      H2            -38.9881778331       14.5180037979       36.9070239772  TIP3      1757            0.0000000000
     30188      1958  TIP3      OH2           -33.9004234228       14.2556688833       38.6983665490  TIP3      1758            0.0000000000
     30189      1958  TIP3      H1            -33.1594424164       13.7371536478       39.0317357514  TIP3      1758            0.0000000000
     30190      1958  TIP3      H2            -33.9429611940       13.9594243303       37.7672953794  TIP3      1758            0.0000000000
     30191      1959  TIP3      OH2           -29.7688294627       13.7164657257       20.1439364481  TIP3      1759            0.0000000000
     30192      1959  TIP3      H1            -30.4703908066       13.0689945396       20.3201457570  TIP3      1759            0.0000000000
     30193      1959  TIP3      H2            -29.0559454455       13.1495032975       19.8281794832  TIP3      1759            0.0000000000
     30194      1960  TIP3      OH2           -27.3956692992       12.6327242983       37.4425975218  TIP3      1760            0.0000000000
     30195      1960  TIP3      H1            -27.7106995854       11.7453425956       37.7168721024  TIP3      1760            0.0000000000
     30196      1960  TIP3      H2            -26.6265391192       12.7509158114       38.0346626286  TIP3      1760            0.0000000000
     30197      1961  TIP3      OH2           -38.5897559049        9.0402697467       38.1765695016  TIP3      1761            0.0000000000
     30198      1961  TIP3      H1            -38.4507334143        8.1446885305       37.8064466311  TIP3      1761            0.0000000000
     30199      1961  TIP3      H2            -39.0726863394        9.4626798664       37.4586509485  TIP3      1761            0.0000000000
     30200      1962  TIP3      OH2           -31.9532365071        9.0898495387       37.4646874280  TIP3      1762            0.0000000000
     30201      1962  TIP3      H1            -32.2943724796        9.4035793440       36.6025930399  TIP3      1762            0.0000000000
     30202      1962  TIP3      H2            -31.8787275696        8.1132302390       37.3571256533  TIP3      1762            0.0000000000
     30203      1963  TIP3      OH2           -26.2552180397        8.9485159443       34.8589758620  TIP3      1763            0.0000000000
     30204      1963  TIP3      H1            -25.4664731752        9.5303250193       34.7978720138  TIP3      1763            0.0000000000
     30205      1963  TIP3      H2            -26.9536102607        9.6177981086       34.8935436681  TIP3      1763            0.0000000000
     30206      1964  TIP3      OH2           -37.8003165303        6.3432340713       37.4431303229  TIP3      1764            0.0000000000
     30207      1964  TIP3      H1            -37.3363296042        5.4940284611       37.3473686713  TIP3      1764            0.0000000000
     30208      1964  TIP3      H2            -37.9917436954        6.3125662213       38.3926652513  TIP3      1764            0.0000000000
     30209      1965  TIP3      OH2           -33.0549614106        7.4406439252       22.5524689400  TIP3      1765            0.0000000000
     30210      1965  TIP3      H1            -33.6096908255        6.9432328998       23.1597877181  TIP3      1765            0.0000000000
     30211      1965  TIP3      H2            -32.8683089794        6.7867585204       21.8393329857  TIP3      1765            0.0000000000
     30212      1966  TIP3      OH2           -33.8737702662        5.2681286263       34.7938413632  TIP3      1766            0.0000000000
     30213      1966  TIP3      H1            -34.4751306899        5.9821972721       35.0677537370  TIP3      1766            0.0000000000
     30214      1966  TIP3      H2            -33.4390981823        5.6545457278       34.0173499945  TIP3      1766            0.0000000000
     30215      1967  TIP3      OH2           -32.0163967975        5.6720218165       20.7742194137  TIP3      1767            0.0000000000
     30216      1967  TIP3      H1            -32.2418308789        5.5079804215       19.8463169012  TIP3      1767            0.0000000000
     30217      1967  TIP3      H2            -31.0703812902        5.7845005418       20.7587841060  TIP3      1767            0.0000000000
     30218      1968  TIP3      OH2           -28.7722298046        7.8426586778       38.1565470181  TIP3      1768            0.0000000000
     30219      1968  TIP3      H1            -27.8165573330        7.8263353411       38.0269991438  TIP3      1768            0.0000000000
     30220      1968  TIP3      H2            -28.9444024221        7.0726898715       38.7221690905  TIP3      1768            0.0000000000
     30221      1969  TIP3      OH2           -33.4259053015        2.6613658188       35.8682125382  TIP3      1769            0.0000000000
     30222      1969  TIP3      H1            -33.3248287317        1.9429675968       35.2140208027  TIP3      1769            0.0000000000
     30223      1969  TIP3      H2            -33.5162512388        3.4660206977       35.3182890274  TIP3      1769            0.0000000000
     30224      1970  TIP3      OH2           -33.0357415406        1.0338781347       33.4260169955  TIP3      1770            0.0000000000
     30225      1970  TIP3      H1            -32.5297885942        1.4966635164       32.7170429340  TIP3      1770            0.0000000000
     30226      1970  TIP3      H2            -33.9310409304        0.9545302535       33.0232556228  TIP3      1770            0.0000000000
     30227      1971  TIP3      OH2           -31.5250317060        6.5087145593       33.6487332052  TIP3      1771            0.0000000000
     30228      1971  TIP3      H1            -30.7345340134        6.3589778537       33.1183961056  TIP3      1771            0.0000000000
     30229      1971  TIP3      H2            -31.8468525219        7.3696520126       33.3476108644  TIP3      1771            0.0000000000
     30230      1972  TIP3      OH2           -27.1039033659        4.2674923214       38.6372585500  TIP3      1772            0.0000000000
     30231      1972  TIP3      H1            -26.8689972505        3.3337122896       38.5390101923  TIP3      1772            0.0000000000
     30232      1972  TIP3      H2            -26.2403577199        4.7118991615       38.6476014118  TIP3      1772            0.0000000000
     30233      1973  TIP3      OH2           -25.7635779528        7.0662822011       36.8012627856  TIP3      1773            0.0000000000
     30234      1973  TIP3      H1            -26.0140324435        7.7863464716       36.1815547258  TIP3      1773            0.0000000000
     30235      1973  TIP3      H2            -24.8028176186        7.0347967657       36.6112799751  TIP3      1773            0.0000000000
     30236      1974  TIP3      OH2           -34.9927747231        3.9160340474       37.7907675186  TIP3      1774            0.0000000000
     30237      1974  TIP3      H1            -35.7515821623        3.3239798243       37.6221382769  TIP3      1774            0.0000000000
     30238      1974  TIP3      H2            -34.3461135026        3.5461146825       37.1631187765  TIP3      1774            0.0000000000
     30239      1975  TIP3      OH2           -32.2510171326       -1.5306736598       33.8143978694  TIP3      1775            0.0000000000
     30240      1975  TIP3      H1            -32.4341819742       -0.5679422806       33.7166730510  TIP3      1775            0.0000000000
     30241      1975  TIP3      H2            -32.9985037147       -1.9002075745       33.3122895711  TIP3      1775            0.0000000000
     30242      1976  TIP3      OH2           -30.9729748784        2.7962239810       37.4462264140  TIP3      1776            0.0000000000
     30243      1976  TIP3      H1            -31.2956167449        2.5632193878       38.3398395881  TIP3      1776            0.0000000000
     30244      1976  TIP3      H2            -31.7579774337        2.5946016406       36.9039824565  TIP3      1776            0.0000000000
     30245      1977  TIP3      OH2           -28.2575635261        1.9372918223       36.5312697041  TIP3      1777            0.0000000000
     30246      1977  TIP3      H1            -29.2221601865        1.9948444292       36.6429496621  TIP3      1777            0.0000000000
     30247      1977  TIP3      H2            -27.9943681668        1.3002796971       37.2234712492  TIP3      1777            0.0000000000
     30248      1978  TIP3      OH2           -26.6778086626        0.5607455071       38.4318027980  TIP3      1778            0.0000000000
     30249      1978  TIP3      H1            -26.7238278713       -0.4175293268       38.4627990490  TIP3      1778            0.0000000000
     30250      1978  TIP3      H2            -26.9241339343        0.8517264295       39.3316977325  TIP3      1778            0.0000000000
     30251      1979  TIP3      OH2           -36.7856241783        1.8163074281       37.5638041170  TIP3      1779            0.0000000000
     30252      1979  TIP3      H1            -36.6422418309        1.0739454879       36.9486176185  TIP3      1779            0.0000000000
     30253      1979  TIP3      H2            -36.9815629155        1.3722592325       38.4121377373  TIP3      1779            0.0000000000
     30254      1980  TIP3      OH2           -32.0346870687       -2.1372739785       36.5149664033  TIP3      1780            0.0000000000
     30255      1980  TIP3      H1            -31.3558336991       -2.8425770174       36.4987857125  TIP3      1780            0.0000000000
     30256      1980  TIP3      H2            -32.1503729910       -1.9977228611       35.5544069171  TIP3      1780            0.0000000000
     30257      1981  TIP3      OH2           -31.6733809684       -0.5262926765       38.6336147988  TIP3      1781            0.0000000000
     30258      1981  TIP3      H1            -31.8467982911       -1.0316912881       37.8007574593  TIP3      1781            0.0000000000
     30259      1981  TIP3      H2            -32.2719035697        0.2391001310       38.5320529793  TIP3      1781            0.0000000000
     30260      1982  TIP3      OH2            40.2820246261       16.5530313831       26.0536363970  TIP3      1782            0.0000000000
     30261      1982  TIP3      H1             39.4923802305       16.0903099205       25.7240032892  TIP3      1782            0.0000000000
     30262      1982  TIP3      H2             40.4111244703       15.9025987074       26.7713854341  TIP3      1782            0.0000000000
     30263      1983  TIP3      OH2           -38.9360856380       14.5006292138       28.2040950556  TIP3      1783            0.0000000000
     30264      1983  TIP3      H1            -39.2457845962       13.5889267198       28.3791925308  TIP3      1783            0.0000000000
     30265      1983  TIP3      H2            -38.6917217275       14.7984044059       29.1042343385  TIP3      1783            0.0000000000
     30266      1984  TIP3      OH2           -21.5096619123       15.2793621067       31.0450699143  TIP3      1784            0.0000000000
     30267      1984  TIP3      H1            -21.4793584824       15.4390524451       32.0044292898  TIP3      1784            0.0000000000
     30268      1984  TIP3      H2            -20.8060123792       15.8624076359       30.7426819259  TIP3      1784            0.0000000000
     30269      1985  TIP3      OH2           -21.9365131591       14.8757247896       33.9907603504  TIP3      1785            0.0000000000
     30270      1985  TIP3      H1            -22.4076482786       14.1040068528       33.6086315724  TIP3      1785            0.0000000000
     30271      1985  TIP3      H2            -21.4518078706       14.4278853228       34.7039377534  TIP3      1785            0.0000000000
     30272      1986  TIP3      OH2           -23.4910588475       10.5965240104       38.6638788358  TIP3      1786            0.0000000000
     30273      1986  TIP3      H1            -24.3867908085       10.5652938939       39.0465040097  TIP3      1786            0.0000000000
     30274      1986  TIP3      H2            -23.1151736987       11.4001687125       39.0761823778  TIP3      1786            0.0000000000
     30275      1987  TIP3      OH2           -22.1530848884        8.8609523871       24.0583881570  TIP3      1787            0.0000000000
     30276      1987  TIP3      H1            -21.3306784859        9.3264325249       24.2830313683  TIP3      1787            0.0000000000
     30277      1987  TIP3      H2            -22.1804972123        8.2218228892       24.7983942916  TIP3      1787            0.0000000000
     30278      1988  TIP3      OH2           -21.7964700111        6.9381475534       25.9540598032  TIP3      1788            0.0000000000
     30279      1988  TIP3      H1            -22.5759308946        6.5388091596       26.3971323899  TIP3      1788            0.0000000000
     30280      1988  TIP3      H2            -21.2184313133        7.1507760726       26.7188524041  TIP3      1788            0.0000000000
     30281      1989  TIP3      OH2           -22.0613622997        9.6926717268       30.9670713122  TIP3      1789            0.0000000000
     30282      1989  TIP3      H1            -21.2457116953        9.3191131621       30.5911151434  TIP3      1789            0.0000000000
     30283      1989  TIP3      H2            -21.9172448747       10.6477455641       30.7999152131  TIP3      1789            0.0000000000
     30284      1990  TIP3      OH2           -23.4985736959       12.6031850115       33.2315314578  TIP3      1790            0.0000000000
     30285      1990  TIP3      H1            -24.1906454012       12.9437850528       33.8222093189  TIP3      1790            0.0000000000
     30286      1990  TIP3      H2            -24.0479546072       12.2009629871       32.5261780745  TIP3      1790            0.0000000000
     30287      1991  TIP3      OH2           -21.6800537802        6.7630607334       22.4352592979  TIP3      1791            0.0000000000
     30288      1991  TIP3      H1            -22.0042998255        7.1757651526       21.6289178069  TIP3      1791            0.0000000000
     30289      1991  TIP3      H2            -21.5451406577        7.5577915153       23.0008027643  TIP3      1791            0.0000000000
     30290      1992  TIP3      OH2           -23.9664145948        5.4196931332       26.5136799479  TIP3      1792            0.0000000000
     30291      1992  TIP3      H1            -24.2016472344        4.4975609403       26.5791122220  TIP3      1792            0.0000000000
     30292      1992  TIP3      H2            -24.3105088120        5.7224366578       27.3832554362  TIP3      1792            0.0000000000
     30293      1993  TIP3      OH2           -38.8882254132        7.3990169535       30.7273831393  TIP3      1793            0.0000000000
     30294      1993  TIP3      H1            -38.7584189133        7.4162087114       29.7491270250  TIP3      1793            0.0000000000
     30295      1993  TIP3      H2            -37.9760978974        7.3858058228       31.0595607471  TIP3      1793            0.0000000000
     30296      1994  TIP3      OH2           -23.1375632897        7.4441315838       36.2444163918  TIP3      1794            0.0000000000
     30297      1994  TIP3      H1            -22.5307639592        6.6844786123       36.3680768672  TIP3      1794            0.0000000000
     30298      1994  TIP3      H2            -22.5302713038        8.2148742823       36.2454381233  TIP3      1794            0.0000000000
     30299      1995  TIP3      OH2           -21.6337246734        5.3196058205       36.8914327918  TIP3      1795            0.0000000000
     30300      1995  TIP3      H1            -22.5168565463        4.9211911414       36.7373563407  TIP3      1795            0.0000000000
     30301      1995  TIP3      H2            -21.0636612458        4.5365448616       36.8153989413  TIP3      1795            0.0000000000
     30302      1996  TIP3      OH2           -23.9375956624        1.5611527510       20.1260971511  TIP3      1796            0.0000000000
     30303      1996  TIP3      H1            -23.3163063060        1.0539564313       20.6502791110  TIP3      1796            0.0000000000
     30304      1996  TIP3      H2            -24.7851794370        1.1015216092       20.1382584906  TIP3      1796            0.0000000000
     30305      1997  TIP3      OH2           -24.4644793910        2.9936284864       25.0364495109  TIP3      1797            0.0000000000
     30306      1997  TIP3      H1            -24.0956351808        2.0942351927       25.1810865978  TIP3      1797            0.0000000000
     30307      1997  TIP3      H2            -23.8206681267        3.5960177420       24.6748046055  TIP3      1797            0.0000000000
     30308      1998  TIP3      OH2           -23.6891203580        3.5626617536       30.4579480353  TIP3      1798            0.0000000000
     30309      1998  TIP3      H1            -22.7446383553        3.8499267772       30.4331537033  TIP3      1798            0.0000000000
     30310      1998  TIP3      H2            -23.8824167905        3.7612596958       31.3877838224  TIP3      1798            0.0000000000
     30311      1999  TIP3      OH2           -23.6165461845        4.3278642716       33.2355076177  TIP3      1799            0.0000000000
     30312      1999  TIP3      H1            -24.5038925724        4.6128829927       33.5482798897  TIP3      1799            0.0000000000
     30313      1999  TIP3      H2            -23.1866883991        5.1868555950       33.0110110930  TIP3      1799            0.0000000000
     30314      2000  TIP3      OH2           -39.2351999787        2.9114365792       36.5854847633  TIP3      1800            0.0000000000
     30315      2000  TIP3      H1            -38.3507048586        2.6953860428       36.9267939478  TIP3      1800            0.0000000000
     30316      2000  TIP3      H2            -39.8058712867        2.2698006497       37.0391935806  TIP3      1800            0.0000000000
     30317      2001  TIP3      OH2           -21.3549518748       -1.6113856814       38.5729392821  TIP3      1801            0.0000000000
     30318      2001  TIP3      H1            -20.9977726094       -2.2740469926       37.9528816900  TIP3      1801            0.0000000000
     30319      2001  TIP3      H2            -21.2520919587       -0.7990630833       38.0392030922  TIP3      1801            0.0000000000
     30320      2002  TIP3      OH2           -23.6296850093        0.3472431814       25.0393629344  TIP3      1802            0.0000000000
     30321      2002  TIP3      H1            -23.4435555086       -0.0753983263       25.9099911508  TIP3      1802            0.0000000000
     30322      2002  TIP3      H2            -24.2647534815       -0.2356614146       24.6153553525  TIP3      1802            0.0000000000
     30323      2003  TIP3      OH2           -38.1137262380        1.1147114928       29.5031726589  TIP3      1803            0.0000000000
     30324      2003  TIP3      H1            -37.7263867398        0.2982932313       29.8754113427  TIP3      1803            0.0000000000
     30325      2003  TIP3      H2            -37.6882277165        1.8058631080       30.0258143021  TIP3      1803            0.0000000000
     30326      2004  TIP3      OH2           -39.8356727870        4.6751453229       30.5691865181  TIP3      1804            0.0000000000
     30327      2004  TIP3      H1            -39.3133920487        4.1794699911       29.9329320498  TIP3      1804            0.0000000000
     30328      2004  TIP3      H2            -39.2069751674        5.2337439398       31.0302170414  TIP3      1804            0.0000000000
     30329      2005  TIP3      OH2           -21.8266253374        0.4893097339       36.9258535803  TIP3      1805            0.0000000000
     30330      2005  TIP3      H1            -22.7649937567        0.7575440877       36.8729195560  TIP3      1805            0.0000000000
     30331      2005  TIP3      H2            -21.7976512200       -0.0655475147       36.1312607967  TIP3      1805            0.0000000000
     30332      2006  TIP3      OH2           -21.7657310896        0.3637782969       21.6770455733  TIP3      1806            0.0000000000
     30333      2006  TIP3      H1            -21.4445902303       -0.3131880842       21.0549109378  TIP3      1806            0.0000000000
     30334      2006  TIP3      H2            -21.1202669782        1.0765002267       21.5789447352  TIP3      1806            0.0000000000
     30335      2007  TIP3      OH2           -39.4715200680        0.4355082575       24.6673620543  TIP3      1807            0.0000000000
     30336      2007  TIP3      H1            -40.4227597229        0.5813151721       24.5693494609  TIP3      1807            0.0000000000
     30337      2007  TIP3      H2            -39.0564074972        0.9326795129       23.9461870598  TIP3      1807            0.0000000000
     30338      2008  TIP3      OH2           -24.7821411045       15.3731702855       26.6606467621  TIP3      1808            0.0000000000
     30339      2008  TIP3      H1            -24.0910468004       15.0623189850       26.0528259934  TIP3      1808            0.0000000000
     30340      2008  TIP3      H2            -24.2772164396       15.8660023790       27.3237981801  TIP3      1808            0.0000000000
     30341      2009  TIP3      OH2            40.3063660662       -0.7855792425       33.0291254954  TIP3      1809            0.0000000000
     30342      2009  TIP3      H1             39.5991327329       -1.1893718326       33.5629603446  TIP3      1809            0.0000000000
     30343      2009  TIP3      H2             39.7570998263       -0.2446026795       32.4539478276  TIP3      1809            0.0000000000
     30344      2010  TIP3      OH2           -37.3801397890       12.2816176678       37.2056929370  TIP3      1810            0.0000000000
     30345      2010  TIP3      H1            -38.2003176808       12.4645130011       36.7470756167  TIP3      1810            0.0000000000
     30346      2010  TIP3      H2            -37.6254060195       12.1721745333       38.1319387750  TIP3      1810            0.0000000000
     30347      2011  TIP3      OH2           -34.4421113640       13.2704675268       33.4616748234  TIP3      1811            0.0000000000
     30348      2011  TIP3      H1            -34.7931099502       14.1313879241       33.1883779171  TIP3      1811            0.0000000000
     30349      2011  TIP3      H2            -33.5152009241       13.3627292501       33.1543091865  TIP3      1811            0.0000000000
     30350      2012  TIP3      OH2           -30.1166031607       14.6961810696       36.3611548986  TIP3      1812            0.0000000000
     30351      2012  TIP3      H1            -29.9800441845       14.3410154936       37.2704815872  TIP3      1812            0.0000000000
     30352      2012  TIP3      H2            -29.2136442917       14.9976427244       36.1213416008  TIP3      1812            0.0000000000
     30353      2013  TIP3      OH2           -27.8321939219       15.9628187483       35.6756647866  TIP3      1813            0.0000000000
     30354      2013  TIP3      H1            -27.0999192248       15.3753043965       35.4364207201  TIP3      1813            0.0000000000
     30355      2013  TIP3      H2            -27.4549758146       16.4009598069       36.4682743060  TIP3      1813            0.0000000000
     30356      2014  TIP3      OH2           -22.8079231268       -1.4146633408       34.7492262384  TIP3      1814            0.0000000000
     30357      2014  TIP3      H1            -23.6592232892       -1.1278233034       34.3835407243  TIP3      1814            0.0000000000
     30358      2014  TIP3      H2            -22.6585964678       -2.2606376357       34.2705714411  TIP3      1814            0.0000000000
     30359      2015  TIP3      OH2           -37.0232516812       16.5263889838       33.4860282560  TIP3      1815            0.0000000000
     30360      2015  TIP3      H1            -37.7686751096       17.0039565056       33.0690407471  TIP3      1815            0.0000000000
     30361      2015  TIP3      H2            -37.3493199308       16.2960192490       34.3637273657  TIP3      1815            0.0000000000
     30362      2016  TIP3      OH2           -34.5360623767       16.0901516117       32.5333112171  TIP3      1816            0.0000000000
     30363      2016  TIP3      H1            -35.4370613786       16.2226369673       32.9101061922  TIP3      1816            0.0000000000
     30364      2016  TIP3      H2            -34.5906333492       16.6790697194       31.7568646767  TIP3      1816            0.0000000000
     30365      2017  TIP3      OH2           -29.8429201197       15.9928855225       31.6950779712  TIP3      1817            0.0000000000
     30366      2017  TIP3      H1            -30.2972961530       16.5567694279       31.0508677018  TIP3      1817            0.0000000000
     30367      2017  TIP3      H2            -29.7055516167       16.6253622108       32.4333712447  TIP3      1817            0.0000000000
     30368      2018  TIP3      OH2           -27.5524065432       14.8032573276       32.7306022898  TIP3      1818            0.0000000000
     30369      2018  TIP3      H1            -28.4033855795       15.0829220358       32.3555422583  TIP3      1818            0.0000000000
     30370      2018  TIP3      H2            -27.0633037199       15.6389064108       32.6354106770  TIP3      1818            0.0000000000
     30371      2019  TIP3      OH2           -24.9670162021       16.3756185136       32.9455768595  TIP3      1819            0.0000000000
     30372      2019  TIP3      H1            -25.0187980070       17.3349858924       32.7179000689  TIP3      1819            0.0000000000
     30373      2019  TIP3      H2            -24.7504057661       16.0003688217       32.0684929047  TIP3      1819            0.0000000000
     30374      2020  TIP3      OH2           -37.5199629569       15.2087201202       30.4077406477  TIP3      1820            0.0000000000
     30375      2020  TIP3      H1            -37.6235282831       14.7123995864       31.2388662619  TIP3      1820            0.0000000000
     30376      2020  TIP3      H2            -36.7607334289       14.7632823108       29.9892070319  TIP3      1820            0.0000000000
     30377      2021  TIP3      OH2           -35.4892840662       13.8568811155       29.0566215473  TIP3      1821            0.0000000000
     30378      2021  TIP3      H1            -35.6553481195       12.9251899955       29.2923551985  TIP3      1821            0.0000000000
     30379      2021  TIP3      H2            -34.6339366493       14.0258554661       29.5069696268  TIP3      1821            0.0000000000
     30380      2022  TIP3      OH2           -32.8880916006       14.3496994338       29.9357100111  TIP3      1822            0.0000000000
     30381      2022  TIP3      H1            -32.7184165516       13.4316379981       29.6640491942  TIP3      1822            0.0000000000
     30382      2022  TIP3      H2            -32.8268700504       14.2855385666       30.8998273982  TIP3      1822            0.0000000000
     30383      2023  TIP3      OH2           -29.4105877504       -0.0019924170       29.0584073293  TIP3      1823            0.0000000000
     30384      2023  TIP3      H1            -30.1019103092       -0.6333595081       29.3216574648  TIP3      1823            0.0000000000
     30385      2023  TIP3      H2            -28.8710578045       -0.5370197695       28.4768279683  TIP3      1823            0.0000000000
     30386      2024  TIP3      OH2           -24.4138772640       -1.9861189563       28.9908996785  TIP3      1824            0.0000000000
     30387      2024  TIP3      H1            -23.8716452920       -1.3137748601       28.5062949518  TIP3      1824            0.0000000000
     30388      2024  TIP3      H2            -25.3124243622       -1.5741620447       28.8702188555  TIP3      1824            0.0000000000
     30389      2025  TIP3      OH2           -22.5993048954       -0.7277040939       27.4894594843  TIP3      1825            0.0000000000
     30390      2025  TIP3      H1            -21.9304643201       -1.2759312026       26.9909713129  TIP3      1825            0.0000000000
     30391      2025  TIP3      H2            -22.1051126784        0.1291107998       27.5429739879  TIP3      1825            0.0000000000
     30392      2026  TIP3      OH2           -37.0303589668       -1.3800217696       26.9389414614  TIP3      1826            0.0000000000
     30393      2026  TIP3      H1            -37.8197948149       -1.5535108169       26.3872546363  TIP3      1826            0.0000000000
     30394      2026  TIP3      H2            -36.5741880481       -2.2386408363       26.8522210708  TIP3      1826            0.0000000000
     30395      2027  TIP3      OH2           -32.6069837182       -1.4518693776       26.7186562261  TIP3      1827            0.0000000000
     30396      2027  TIP3      H1            -31.7134845662       -1.0819395112       26.6051381561  TIP3      1827            0.0000000000
     30397      2027  TIP3      H2            -32.6081181972       -1.6792227309       27.6451685450  TIP3      1827            0.0000000000
     30398      2028  TIP3      OH2           -26.8597579033       -1.4387981037       28.3146408614  TIP3      1828            0.0000000000
     30399      2028  TIP3      H1            -27.0149639971       -1.2783815856       27.3842281762  TIP3      1828            0.0000000000
     30400      2028  TIP3      H2            -27.2813797432       -2.3275213664       28.4683345646  TIP3      1828            0.0000000000
     30401      2029  TIP3      OH2           -38.4069017083       14.3175178851       23.6565550106  TIP3      1829            0.0000000000
     30402      2029  TIP3      H1            -39.0219971152       14.3898634399       22.9183419049  TIP3      1829            0.0000000000
     30403      2029  TIP3      H2            -38.3150708193       15.2738845696       23.8073949516  TIP3      1829            0.0000000000
     30404      2030  TIP3      OH2           -36.4552340693        0.2158183909       21.1837012983  TIP3      1830            0.0000000000
     30405      2030  TIP3      H1            -35.8753982869       -0.2544223774       20.5904292923  TIP3      1830            0.0000000000
     30406      2030  TIP3      H2            -35.7790543662        0.6260067087       21.7612111235  TIP3      1830            0.0000000000
     30407      2031  TIP3      OH2           -29.4889073235       15.6741746431       21.9702105844  TIP3      1831            0.0000000000
     30408      2031  TIP3      H1            -28.5705184685       15.9038648691       21.8067318451  TIP3      1831            0.0000000000
     30409      2031  TIP3      H2            -29.6696448539       15.1073364167       21.1956174435  TIP3      1831            0.0000000000
     30410      2032  TIP3      OH2           -22.7984749399       15.1136047168       24.6775566748  TIP3      1832            0.0000000000
     30411      2032  TIP3      H1            -23.0096609232       14.3819972977       24.0893553092  TIP3      1832            0.0000000000
     30412      2032  TIP3      H2            -22.8687788954       15.8829070558       24.0595537309  TIP3      1832            0.0000000000
     30413      2033  TIP3      OH2           -37.1686800435       -0.8120777048       36.3825599754  TIP3      1833            0.0000000000
     30414      2033  TIP3      H1            -37.5627468136       -1.6227573908       36.7569946865  TIP3      1833            0.0000000000
     30415      2033  TIP3      H2            -36.2535295517       -0.8738653916       36.7451080097  TIP3      1833            0.0000000000
     30416      2034  TIP3      OH2           -35.1790164836       -1.4459788497       38.0041635492  TIP3      1834            0.0000000000
     30417      2034  TIP3      H1            -34.2876491769       -1.7769596585       37.7883597701  TIP3      1834            0.0000000000
     30418      2034  TIP3      H2            -35.5462181698       -2.2528434010       38.4058574629  TIP3      1834            0.0000000000
     30419      2035  TIP3      OH2           -26.7628739117       -2.1608243224       38.1582955907  TIP3      1835            0.0000000000
     30420      2035  TIP3      H1            -26.6683465958       -2.6346884277       39.0077693494  TIP3      1835            0.0000000000
     30421      2035  TIP3      H2            -25.8459925627       -2.1944575331       37.8155440051  TIP3      1835            0.0000000000
     30422      2036  TIP3      OH2           -23.5512929854       13.8904224292       36.7880568415  TIP3      1836            0.0000000000
     30423      2036  TIP3      H1            -24.3555321407       13.7543471641       36.2414616457  TIP3      1836            0.0000000000
     30424      2036  TIP3      H2            -23.6678158632       14.8368641613       37.0067499741  TIP3      1836            0.0000000000
     30425      2037  TIP3      OH2            -9.1003663060        7.7812576569       26.7767276826  TIP3      1837            0.0000000000
     30426      2037  TIP3      H1             -9.1125366566        8.7588007422       26.7186449478  TIP3      1837            0.0000000000
     30427      2037  TIP3      H2             -9.8312473022        7.5359571402       26.1872647117  TIP3      1837            0.0000000000
     30428      2038  TIP3      OH2           -10.2453993831        7.0206960819       30.2661183751  TIP3      1838            0.0000000000
     30429      2038  TIP3      H1            -10.2696104362        6.3761667510       30.9920789457  TIP3      1838            0.0000000000
     30430      2038  TIP3      H2            -10.5987877329        6.5129017685       29.5183955966  TIP3      1838            0.0000000000
     30431      2039  TIP3      OH2           -17.8989416327        6.7012682019       31.8143027070  TIP3      1839            0.0000000000
     30432      2039  TIP3      H1            -17.8268487912        6.0158591113       32.5107833176  TIP3      1839            0.0000000000
     30433      2039  TIP3      H2            -17.1485434335        7.2671825809       32.0473706400  TIP3      1839            0.0000000000
     30434      2040  TIP3      OH2            -6.5658769150        9.9643777382       28.5643788298  TIP3      1840            0.0000000000
     30435      2040  TIP3      H1             -6.9845998580        9.2520103277       29.0547378152  TIP3      1840            0.0000000000
     30436      2040  TIP3      H2             -6.5421250889       10.6831177491       29.2236212775  TIP3      1840            0.0000000000
     30437      2041  TIP3      OH2           -16.9740140003       11.1468838922       30.3200753221  TIP3      1841            0.0000000000
     30438      2041  TIP3      H1            -17.2843418164       10.2763246747       30.0042927650  TIP3      1841            0.0000000000
     30439      2041  TIP3      H2            -16.0183452335       10.9647678334       30.3681430485  TIP3      1841            0.0000000000
     30440      2042  TIP3      OH2           -20.3389108377        4.6873835038       25.8213472519  TIP3      1842            0.0000000000
     30441      2042  TIP3      H1            -20.7044842334        5.6032216863       25.7952703706  TIP3      1842            0.0000000000
     30442      2042  TIP3      H2            -20.8697854762        4.2197825795       25.2193586498  TIP3      1842            0.0000000000
     30443      2043  TIP3      OH2           -19.6446913181        6.8916515198       27.9070703824  TIP3      1843            0.0000000000
     30444      2043  TIP3      H1            -19.3370757515        6.1186673058       28.4146717324  TIP3      1843            0.0000000000
     30445      2043  TIP3      H2            -18.9068842243        7.0520404730       27.3029151549  TIP3      1843            0.0000000000
     30446      2044  TIP3      OH2            -9.4418778973       15.1307687753       28.7962863889  TIP3      1844            0.0000000000
     30447      2044  TIP3      H1             -8.7949787678       14.4417182700       28.5050435130  TIP3      1844            0.0000000000
     30448      2044  TIP3      H2             -9.6619359966       14.7901762413       29.6626891918  TIP3      1844            0.0000000000
     30449      2045  TIP3      OH2           -11.8769506932        9.4172454101       30.7448928919  TIP3      1845            0.0000000000
     30450      2045  TIP3      H1            -11.5383254857        8.7939653282       30.0845075432  TIP3      1845            0.0000000000
     30451      2045  TIP3      H2            -11.0657308824        9.5786613931       31.2583085874  TIP3      1845            0.0000000000
     30452      2046  TIP3      OH2            -3.2829896464        1.0864783876       31.4641270170  TIP3      1846            0.0000000000
     30453      2046  TIP3      H1             -3.1040440748        1.6701326809       32.2326647086  TIP3      1846            0.0000000000
     30454      2046  TIP3      H2             -2.7119112996        1.5037034040       30.8045476589  TIP3      1846            0.0000000000
     30455      2047  TIP3      OH2            -8.7080659358        3.8916505727       31.0583558887  TIP3      1847            0.0000000000
     30456      2047  TIP3      H1             -8.5399950798        2.9328369501       31.0628543801  TIP3      1847            0.0000000000
     30457      2047  TIP3      H2             -8.8126557790        4.0309311820       30.0971648853  TIP3      1847            0.0000000000
     30458      2048  TIP3      OH2           -15.5998135230        1.9718013257       28.2695179476  TIP3      1848            0.0000000000
     30459      2048  TIP3      H1            -15.4871787385        2.8106647815       27.7792631762  TIP3      1848            0.0000000000
     30460      2048  TIP3      H2            -15.9940547735        1.4055917514       27.5712643790  TIP3      1848            0.0000000000
     30461      2049  TIP3      OH2            -7.8676546642        2.0682354604       26.6527651092  TIP3      1849            0.0000000000
     30462      2049  TIP3      H1             -7.2053134985        1.7401556447       27.3044732499  TIP3      1849            0.0000000000
     30463      2049  TIP3      H2             -7.3038275019        2.6287155606       26.0967288932  TIP3      1849            0.0000000000
     30464      2050  TIP3      OH2           -18.9925356991        4.3808917035       29.0008915740  TIP3      1850            0.0000000000
     30465      2050  TIP3      H1            -18.3122202647        3.8525094459       29.4599060215  TIP3      1850            0.0000000000
     30466      2050  TIP3      H2            -18.8480637260        4.0800433454       28.0905923433  TIP3      1850            0.0000000000
     30467      2051  TIP3      OH2           -13.8190948814        5.9453252207       28.3270537367  TIP3      1851            0.0000000000
     30468      2051  TIP3      H1            -13.1410719504        5.3667204419       28.7179485328  TIP3      1851            0.0000000000
     30469      2051  TIP3      H2            -14.3296004891        5.2871521531       27.8178243364  TIP3      1851            0.0000000000
     30470      2052  TIP3      OH2            -2.8350057346        2.4903768917       33.7520156280  TIP3      1852            0.0000000000
     30471      2052  TIP3      H1             -3.4412593076        3.2538850097       33.6382078245  TIP3      1852            0.0000000000
     30472      2052  TIP3      H2             -2.7943115764        2.4204910833       34.7147407272  TIP3      1852            0.0000000000
     30473      2053  TIP3      OH2           -16.6802681469        0.8840792206       32.3194773559  TIP3      1853            0.0000000000
     30474      2053  TIP3      H1            -16.9659893171        1.4470556117       31.5667629069  TIP3      1853            0.0000000000
     30475      2053  TIP3      H2            -17.3616646303        1.1123472427       32.9964865403  TIP3      1853            0.0000000000
     30476      2054  TIP3      OH2            -9.3908795618       10.3668027789       25.8600760153  TIP3      1854            0.0000000000
     30477      2054  TIP3      H1             -9.6734763729       10.1046190357       24.9725667628  TIP3      1854            0.0000000000
     30478      2054  TIP3      H2             -9.7009422086       11.2998037648       25.9133081970  TIP3      1854            0.0000000000
     30479      2055  TIP3      OH2           -14.1619477118        8.5167379182       32.5843934574  TIP3      1855            0.0000000000
     30480      2055  TIP3      H1            -14.8769542627        9.1677372053       32.7626071850  TIP3      1855            0.0000000000
     30481      2055  TIP3      H2            -13.4721553093        9.1186846051       32.2504175083  TIP3      1855            0.0000000000
     30482      2056  TIP3      OH2            -6.0494368125        1.4101771216       28.6382320020  TIP3      1856            0.0000000000
     30483      2056  TIP3      H1             -6.2666993871        0.6382048806       29.1672836128  TIP3      1856            0.0000000000
     30484      2056  TIP3      H2             -5.3738855764        1.8410606544       29.1889561669  TIP3      1856            0.0000000000
     30485      2057  TIP3      OH2           -17.1139426098        2.7381166078       30.3489589845  TIP3      1857            0.0000000000
     30486      2057  TIP3      H1            -16.4847811608        3.4250029448       30.6521469205  TIP3      1857            0.0000000000
     30487      2057  TIP3      H2            -16.6012507085        2.3246915546       29.6092485261  TIP3      1857            0.0000000000
     30488      2058  TIP3      OH2           -15.7272078449       10.5303548302       33.3603993561  TIP3      1858            0.0000000000
     30489      2058  TIP3      H1            -15.7775531631       11.4499404663       33.0320494158  TIP3      1858            0.0000000000
     30490      2058  TIP3      H2            -16.6066713717       10.4508857458       33.8096192212  TIP3      1858            0.0000000000
     30491      2059  TIP3      OH2           -19.6595923885       10.1417436191       24.1403080803  TIP3      1859            0.0000000000
     30492      2059  TIP3      H1            -19.9138004679       10.4698038474       23.2697743187  TIP3      1859            0.0000000000
     30493      2059  TIP3      H2            -19.5851286379       10.9666610855       24.6602516919  TIP3      1859            0.0000000000
     30494      2060  TIP3      OH2            -6.0358414501       11.8089895061       30.9262880737  TIP3      1860            0.0000000000
     30495      2060  TIP3      H1             -7.0044180366       11.9200163352       31.0438173526  TIP3      1860            0.0000000000
     30496      2060  TIP3      H2             -5.7673761992       12.7238930007       30.7193383440  TIP3      1860            0.0000000000
     30497      2061  TIP3      OH2            -5.7084475954        0.0921264146       32.3070351445  TIP3      1861            0.0000000000
     30498      2061  TIP3      H1             -6.4352325194        0.7242351926       32.2170054808  TIP3      1861            0.0000000000
     30499      2061  TIP3      H2             -4.9929753175        0.5125045820       31.7884845250  TIP3      1861            0.0000000000
     30500      2062  TIP3      OH2           -12.7475384648       -1.7838527995       29.7780926235  TIP3      1862            0.0000000000
     30501      2062  TIP3      H1            -12.8779922037       -2.7474034805       29.6997319763  TIP3      1862            0.0000000000
     30502      2062  TIP3      H2            -13.6284406665       -1.4838507044       30.0828358406  TIP3      1862            0.0000000000
     30503      2063  TIP3      OH2            -7.7634587678       13.5839131610       27.5293783183  TIP3      1863            0.0000000000
     30504      2063  TIP3      H1             -7.3521612050       12.8758400477       26.9854059120  TIP3      1863            0.0000000000
     30505      2063  TIP3      H2             -7.3482083290       14.3736208167       27.1130569602  TIP3      1863            0.0000000000
     30506      2064  TIP3      OH2            -6.5867909649       11.5241207297       26.0658129889  TIP3      1864            0.0000000000
     30507      2064  TIP3      H1             -6.8425103721       10.8489996664       25.4116924742  TIP3      1864            0.0000000000
     30508      2064  TIP3      H2             -6.5300417113       11.0050026772       26.8792583629  TIP3      1864            0.0000000000
     30509      2065  TIP3      OH2            -4.8838711447       10.1107147995       34.5389027889  TIP3      1865            0.0000000000
     30510      2065  TIP3      H1             -4.8211221671        9.4625351495       33.7994691657  TIP3      1865            0.0000000000
     30511      2065  TIP3      H2             -4.7643739500       10.9592687600       34.0755925622  TIP3      1865            0.0000000000
     30512      2066  TIP3      OH2           -10.4756264370        6.9798815967       24.2719389834  TIP3      1866            0.0000000000
     30513      2066  TIP3      H1            -11.1314990047        7.5990492678       23.8999090604  TIP3      1866            0.0000000000
     30514      2066  TIP3      H2             -9.7319071759        7.0883936852       23.6390787285  TIP3      1866            0.0000000000
     30515      2067  TIP3      OH2            -3.0578210770        6.4270871767       32.5623011628  TIP3      1867            0.0000000000
     30516      2067  TIP3      H1             -3.7178954416        7.1475461809       32.5982033677  TIP3      1867            0.0000000000
     30517      2067  TIP3      H2             -2.5639961970        6.6603093971       31.7565065099  TIP3      1867            0.0000000000
     30518      2068  TIP3      OH2            -7.0103140439        7.2013396108       25.2212115955  TIP3      1868            0.0000000000
     30519      2068  TIP3      H1             -7.7373461457        7.4694136766       25.8338410776  TIP3      1868            0.0000000000
     30520      2068  TIP3      H2             -6.5190653815        6.5478721425       25.7498075792  TIP3      1868            0.0000000000
     30521      2069  TIP3      OH2            -7.0743737187        5.3770724728       34.3296700938  TIP3      1869            0.0000000000
     30522      2069  TIP3      H1             -7.0702746416        6.1888230014       34.8642312642  TIP3      1869            0.0000000000
     30523      2069  TIP3      H2             -7.7021814201        5.6743959967       33.6388404376  TIP3      1869            0.0000000000
     30524      2070  TIP3      OH2           -15.4181719827        7.8592630989       27.1417154017  TIP3      1870            0.0000000000
     30525      2070  TIP3      H1            -15.7199339174        7.4701608786       26.2871670999  TIP3      1870            0.0000000000
     30526      2070  TIP3      H2            -14.7713304195        7.1862404156       27.4530661640  TIP3      1870            0.0000000000
     30527      2071  TIP3      OH2           -14.0747473298       11.2528661205       29.8003540075  TIP3      1871            0.0000000000
     30528      2071  TIP3      H1            -14.0762147534       10.7353244593       28.9853462747  TIP3      1871            0.0000000000
     30529      2071  TIP3      H2            -13.2901133268       10.8999652029       30.2597884969  TIP3      1871            0.0000000000
     30530      2072  TIP3      OH2           -15.0463141279        6.6013786939       30.8151252586  TIP3      1872            0.0000000000
     30531      2072  TIP3      H1            -14.5218795666        6.7109644715       29.9947123791  TIP3      1872            0.0000000000
     30532      2072  TIP3      H2            -14.6720745071        7.3028511864       31.3887957912  TIP3      1872            0.0000000000
     30533      2073  TIP3      OH2            -8.6408554692       12.1938031037       31.4974870606  TIP3      1873            0.0000000000
     30534      2073  TIP3      H1             -8.9286610707       12.8285975990       32.1597008716  TIP3      1873            0.0000000000
     30535      2073  TIP3      H2             -8.9013414382       11.3398006752       31.9150183700  TIP3      1873            0.0000000000
     30536      2074  TIP3      OH2           -14.1104484981       11.0521404374       35.4764289835  TIP3      1874            0.0000000000
     30537      2074  TIP3      H1            -14.5243017524       11.7878544626       35.9726915586  TIP3      1874            0.0000000000
     30538      2074  TIP3      H2            -14.7837956667       10.8518838194       34.7813617084  TIP3      1874            0.0000000000
     30539      2075  TIP3      OH2            -8.1498772747        6.4137553991       22.8810842202  TIP3      1875            0.0000000000
     30540      2075  TIP3      H1             -7.5920795539        6.5984877241       23.6742537285  TIP3      1875            0.0000000000
     30541      2075  TIP3      H2             -7.7214262261        6.9307681353       22.1792202550  TIP3      1875            0.0000000000
     30542      2076  TIP3      OH2           -17.1522992859        7.1943977571       34.6621533127  TIP3      1876            0.0000000000
     30543      2076  TIP3      H1            -17.1261864956        7.8875534552       35.3554191062  TIP3      1876            0.0000000000
     30544      2076  TIP3      H2            -18.0922307797        7.2978749901       34.4213941169  TIP3      1876            0.0000000000
     30545      2077  TIP3      OH2           -10.3776862737       13.1544121518       26.3163091288  TIP3      1877            0.0000000000
     30546      2077  TIP3      H1             -9.9726277912       13.4383747855       27.1463446875  TIP3      1877            0.0000000000
     30547      2077  TIP3      H2            -10.9846421476       13.8750492502       26.1288314142  TIP3      1877            0.0000000000
     30548      2078  TIP3      OH2           -15.8612490557       13.0850881152       36.2275577880  TIP3      1878            0.0000000000
     30549      2078  TIP3      H1            -15.9259896920       12.9899464459       35.2618261130  TIP3      1878            0.0000000000
     30550      2078  TIP3      H2            -16.7899659157       12.9501260917       36.4977700915  TIP3      1878            0.0000000000
     30551      2079  TIP3      OH2           -16.4117708737        6.9004614900       24.7348888431  TIP3      1879            0.0000000000
     30552      2079  TIP3      H1            -16.7152462522        7.6727268021       24.2114290055  TIP3      1879            0.0000000000
     30553      2079  TIP3      H2            -17.0790514219        6.2418188608       24.5152262852  TIP3      1879            0.0000000000
     30554      2080  TIP3      OH2           -20.3325323335        9.3292983323       33.6437847581  TIP3      1880            0.0000000000
     30555      2080  TIP3      H1            -20.7759390385        9.2464088851       32.7789070715  TIP3      1880            0.0000000000
     30556      2080  TIP3      H2            -20.2499466328        8.3794152742       33.8556566266  TIP3      1880            0.0000000000
     30557      2081  TIP3      OH2           -20.5719963094       12.0635447261       30.4107705967  TIP3      1881            0.0000000000
     30558      2081  TIP3      H1            -19.6140129522       11.9456467841       30.3941722325  TIP3      1881            0.0000000000
     30559      2081  TIP3      H2            -20.6539462933       12.8800434404       30.9183193546  TIP3      1881            0.0000000000
     30560      2082  TIP3      OH2            -2.2982641934       12.7338824506       36.1692460810  TIP3      1882            0.0000000000
     30561      2082  TIP3      H1             -2.5391497418       11.8107387823       36.0468771817  TIP3      1882            0.0000000000
     30562      2082  TIP3      H2             -3.1873451465       13.0462526791       36.4842863708  TIP3      1882            0.0000000000
     30563      2083  TIP3      OH2           -11.3733857271       12.3055864207       34.9655351797  TIP3      1883            0.0000000000
     30564      2083  TIP3      H1            -11.3163137518       13.1474791587       35.4744512793  TIP3      1883            0.0000000000
     30565      2083  TIP3      H2            -12.2482222288       11.9523520137       35.2144534554  TIP3      1883            0.0000000000
     30566      2084  TIP3      OH2           -10.9576840703       16.0549388802       24.7599701501  TIP3      1884            0.0000000000
     30567      2084  TIP3      H1            -11.0027193521       15.9878371705       23.8199954667  TIP3      1884            0.0000000000
     30568      2084  TIP3      H2            -10.9126186793       17.0094565904       24.9790604464  TIP3      1884            0.0000000000
     30569      2085  TIP3      OH2           -17.3032269693       14.9454184847       26.6116943880  TIP3      1885            0.0000000000
     30570      2085  TIP3      H1            -17.1413237880       14.5092022216       27.4775393487  TIP3      1885            0.0000000000
     30571      2085  TIP3      H2            -18.1333977113       14.5102423278       26.3601973496  TIP3      1885            0.0000000000
     30572      2086  TIP3      OH2            -8.3054252383       15.1765110417       21.7826278116  TIP3      1886            0.0000000000
     30573      2086  TIP3      H1             -7.6029316856       14.6737499814       21.2857054936  TIP3      1886            0.0000000000
     30574      2086  TIP3      H2             -7.8161237562       15.0352647167       22.6210234063  TIP3      1886            0.0000000000
     30575      2087  TIP3      OH2            -8.2480250528       15.2858497625       24.6390690437  TIP3      1887            0.0000000000
     30576      2087  TIP3      H1             -9.2029639039       15.2332957362       24.7609978760  TIP3      1887            0.0000000000
     30577      2087  TIP3      H2             -7.9219308329       14.4658447387       25.0468688230  TIP3      1887            0.0000000000
     30578      2088  TIP3      OH2            -5.1965293254        4.2455603762       36.5550054906  TIP3      1888            0.0000000000
     30579      2088  TIP3      H1             -5.6712104501        4.6813671035       35.8352266459  TIP3      1888            0.0000000000
     30580      2088  TIP3      H2             -5.1891934116        3.3179320386       36.2791862598  TIP3      1888            0.0000000000
     30581      2089  TIP3      OH2           -18.0454755384       10.6414341629       34.5767529819  TIP3      1889            0.0000000000
     30582      2089  TIP3      H1            -17.8299665965       10.2860703106       35.4625263783  TIP3      1889            0.0000000000
     30583      2089  TIP3      H2            -18.9158321378       10.2447217197       34.3650776816  TIP3      1889            0.0000000000
     30584      2090  TIP3      OH2           -15.3686346193       -0.8773197688       30.5148174001  TIP3      1890            0.0000000000
     30585      2090  TIP3      H1            -16.2738636151       -1.0085496655       30.1606469883  TIP3      1890            0.0000000000
     30586      2090  TIP3      H2            -15.5005751717       -0.0540963340       31.0112876672  TIP3      1890            0.0000000000
     30587      2091  TIP3      OH2           -10.7193433001       -1.2213613797       33.8855482650  TIP3      1891            0.0000000000
     30588      2091  TIP3      H1            -10.3287350738       -1.6423463027       34.6740961937  TIP3      1891            0.0000000000
     30589      2091  TIP3      H2            -11.6917160204       -1.3324968345       34.0340783658  TIP3      1891            0.0000000000
     30590      2092  TIP3      OH2            -7.4497720103        2.6137695549       34.7582392409  TIP3      1892            0.0000000000
     30591      2092  TIP3      H1             -7.9755497494        2.4123226461       35.5723574076  TIP3      1892            0.0000000000
     30592      2092  TIP3      H2             -7.5980042355        3.5543910177       34.5608668362  TIP3      1892            0.0000000000
     30593      2093  TIP3      OH2           -11.0735670383        1.3826869116       21.2587346171  TIP3      1893            0.0000000000
     30594      2093  TIP3      H1            -11.4099220995        1.2655356682       22.1700455874  TIP3      1893            0.0000000000
     30595      2093  TIP3      H2            -11.3592306601        0.5252616079       20.8886381979  TIP3      1893            0.0000000000
     30596      2094  TIP3      OH2           -15.2454452350        4.1069139459       31.8417745616  TIP3      1894            0.0000000000
     30597      2094  TIP3      H1            -16.0533152104        4.0648330934       32.3802079233  TIP3      1894            0.0000000000
     30598      2094  TIP3      H2            -15.3195366081        4.9850448135       31.3938306484  TIP3      1894            0.0000000000
     30599      2095  TIP3      OH2           -15.3094131216        4.1940623368       26.6491295060  TIP3      1895            0.0000000000
     30600      2095  TIP3      H1            -16.2483221240        3.9526571410       26.5058208243  TIP3      1895            0.0000000000
     30601      2095  TIP3      H2            -14.9259745431        3.9052473085       25.7976641836  TIP3      1895            0.0000000000
     30602      2096  TIP3      OH2            -9.8069771080        4.6827661965       25.3701402775  TIP3      1896            0.0000000000
     30603      2096  TIP3      H1            -10.1727647957        5.5370557830       25.0494485018  TIP3      1896            0.0000000000
     30604      2096  TIP3      H2             -9.0789000903        4.5333624289       24.7425003219  TIP3      1896            0.0000000000
     30605      2097  TIP3      OH2           -10.7818220683        4.9177120944       36.8552086569  TIP3      1897            0.0000000000
     30606      2097  TIP3      H1            -11.1900609786        4.0965234088       37.2185359916  TIP3      1897            0.0000000000
     30607      2097  TIP3      H2             -9.8987864709        4.8468317038       37.2911153551  TIP3      1897            0.0000000000
     30608      2098  TIP3      OH2            -8.7480489213        4.2041063212       28.2592861570  TIP3      1898            0.0000000000
     30609      2098  TIP3      H1             -9.0316882787        4.7618546540       27.5144195994  TIP3      1898            0.0000000000
     30610      2098  TIP3      H2             -8.6526805675        3.3515436789       27.7929385799  TIP3      1898            0.0000000000
     30611      2099  TIP3      OH2           -17.5926068495        4.3262035790       33.4824243340  TIP3      1899            0.0000000000
     30612      2099  TIP3      H1            -17.5995103527        4.7587485928       34.3495521363  TIP3      1899            0.0000000000
     30613      2099  TIP3      H2            -18.0887290977        3.5105199499       33.6622419699  TIP3      1899            0.0000000000
     30614      2100  TIP3      OH2           -20.9967911833        1.4379136376       27.4372116337  TIP3      1900            0.0000000000
     30615      2100  TIP3      H1            -20.3150550729        1.4265636929       28.1477627557  TIP3      1900            0.0000000000
     30616      2100  TIP3      H2            -20.5046205420        1.0541564557       26.6879351619  TIP3      1900            0.0000000000
     30617      2101  TIP3      OH2           -19.7360218152        2.1876136909       22.8944602986  TIP3      1901            0.0000000000
     30618      2101  TIP3      H1            -19.1958737953        2.7577986516       22.2918066888  TIP3      1901            0.0000000000
     30619      2101  TIP3      H2            -20.3611836940        2.9014757597       23.0633039880  TIP3      1901            0.0000000000
     30620      2102  TIP3      OH2            -9.5790014677        5.7789180312       32.8102959956  TIP3      1902            0.0000000000
     30621      2102  TIP3      H1             -9.1637788112        5.1113342674       32.2222024787  TIP3      1902            0.0000000000
     30622      2102  TIP3      H2            -10.0029156059        5.2352287244       33.4856344988  TIP3      1902            0.0000000000
     30623      2103  TIP3      OH2           -12.7436698412        1.7641793484       27.6540024929  TIP3      1903            0.0000000000
     30624      2103  TIP3      H1            -13.6757451158        1.7612187834       27.9403158054  TIP3      1903            0.0000000000
     30625      2103  TIP3      H2            -12.2634085590        1.5913927084       28.4751646784  TIP3      1903            0.0000000000
     30626      2104  TIP3      OH2           -17.9416831248        3.3104019475       26.5411529398  TIP3      1904            0.0000000000
     30627      2104  TIP3      H1            -18.8052748656        3.4706866587       26.1273983322  TIP3      1904            0.0000000000
     30628      2104  TIP3      H2            -17.6258367326        2.4845294926       26.1341691251  TIP3      1904            0.0000000000
     30629      2105  TIP3      OH2           -14.3187283442        3.3611897449       24.1184065702  TIP3      1905            0.0000000000
     30630      2105  TIP3      H1            -13.3614960188        3.4429435544       24.2845923437  TIP3      1905            0.0000000000
     30631      2105  TIP3      H2            -14.5461213006        4.0485210347       23.4731952304  TIP3      1905            0.0000000000
     30632      2106  TIP3      OH2            -8.3444313578        0.9975676013       30.8932986701  TIP3      1906            0.0000000000
     30633      2106  TIP3      H1             -9.0347025884        1.0424883208       31.5870386470  TIP3      1906            0.0000000000
     30634      2106  TIP3      H2             -8.8486582125        0.7397048065       30.1075150776  TIP3      1906            0.0000000000
     30635      2107  TIP3      OH2           -15.5551681680        4.5479316664       21.7327109994  TIP3      1907            0.0000000000
     30636      2107  TIP3      H1            -16.1646514785        4.1857643089       21.0580459487  TIP3      1907            0.0000000000
     30637      2107  TIP3      H2            -14.7898523186        4.7037009355       21.1890718674  TIP3      1907            0.0000000000
     30638      2108  TIP3      OH2            -5.1461916552       16.6492450734       37.2634082752  TIP3      1908            0.0000000000
     30639      2108  TIP3      H1             -4.8926817734       16.9867033667       36.3775883287  TIP3      1908            0.0000000000
     30640      2108  TIP3      H2             -4.3790066163       16.9830037784       37.7538053297  TIP3      1908            0.0000000000
     30641      2109  TIP3      OH2           -17.4426921150        9.0881640513       36.7844549790  TIP3      1909            0.0000000000
     30642      2109  TIP3      H1            -16.7436884840        9.3543111959       37.4051730701  TIP3      1909            0.0000000000
     30643      2109  TIP3      H2            -18.2300056398        9.1772063012       37.3654871776  TIP3      1909            0.0000000000
     30644      2110  TIP3      OH2           -11.4672232766        4.5186004702       29.5405687977  TIP3      1910            0.0000000000
     30645      2110  TIP3      H1            -10.8637496689        3.9850267830       29.0127726609  TIP3      1910            0.0000000000
     30646      2110  TIP3      H2            -11.6115093603        3.9650650004       30.3164031791  TIP3      1910            0.0000000000
     30647      2111  TIP3      OH2           -16.4613530214        0.6658212059       26.0016427516  TIP3      1911            0.0000000000
     30648      2111  TIP3      H1            -16.7662162003       -0.2585283070       25.9740021444  TIP3      1911            0.0000000000
     30649      2111  TIP3      H2            -15.6877405853        0.5713107093       25.4230042420  TIP3      1911            0.0000000000
     30650      2112  TIP3      OH2           -12.8316767171        2.8336338139       31.9524373010  TIP3      1912            0.0000000000
     30651      2112  TIP3      H1            -13.6582174270        3.3535436419       32.0101224340  TIP3      1912            0.0000000000
     30652      2112  TIP3      H2            -12.2668353198        3.1938511942       32.6569721755  TIP3      1912            0.0000000000
     30653      2113  TIP3      OH2           -12.2681829913        9.0765941011       23.6392050435  TIP3      1913            0.0000000000
     30654      2113  TIP3      H1            -13.0584248321        8.5726987058       23.3605116629  TIP3      1913            0.0000000000
     30655      2113  TIP3      H2            -12.4518612654        9.2187213264       24.5950839267  TIP3      1913            0.0000000000
     30656      2114  TIP3      OH2            -5.0521923603        8.2751557596       32.4609057586  TIP3      1914            0.0000000000
     30657      2114  TIP3      H1             -4.4889206002        8.7542166759       31.8254652730  TIP3      1914            0.0000000000
     30658      2114  TIP3      H2             -5.9111620057        8.3131932567       31.9937196923  TIP3      1914            0.0000000000
     30659      2115  TIP3      OH2            -8.4070422485        1.8804610414       21.8270527378  TIP3      1915            0.0000000000
     30660      2115  TIP3      H1             -9.3545695156        2.0054398229       21.6981281505  TIP3      1915            0.0000000000
     30661      2115  TIP3      H2             -8.0648632987        2.7296896657       22.1680776340  TIP3      1915            0.0000000000
     30662      2116  TIP3      OH2           -10.7773033479        9.3179799176       34.8962187125  TIP3      1916            0.0000000000
     30663      2116  TIP3      H1            -11.0818222220        8.9319334021       35.7172602664  TIP3      1916            0.0000000000
     30664      2116  TIP3      H2            -10.9941115181       10.2527567624       34.9976928739  TIP3      1916            0.0000000000
     30665      2117  TIP3      OH2            -7.6653857235        3.8127641373       23.5142341218  TIP3      1917            0.0000000000
     30666      2117  TIP3      H1             -6.7627190700        3.6461035718       23.8554387585  TIP3      1917            0.0000000000
     30667      2117  TIP3      H2             -7.5680459089        4.6161307037       22.9753403173  TIP3      1917            0.0000000000
     30668      2118  TIP3      OH2           -17.1304169501        8.4615600079       29.4524387829  TIP3      1918            0.0000000000
     30669      2118  TIP3      H1            -16.4516246836        8.3794103629       28.7515559773  TIP3      1918            0.0000000000
     30670      2118  TIP3      H2            -17.0704463067        7.6040484010       29.9104122512  TIP3      1918            0.0000000000
     30671      2119  TIP3      OH2           -10.1387911537       10.5317942012       22.7363861509  TIP3      1919            0.0000000000
     30672      2119  TIP3      H1            -10.4559896025       11.4019864883       23.0278339928  TIP3      1919            0.0000000000
     30673      2119  TIP3      H2            -10.8863353579        9.9359655168       22.9233019447  TIP3      1919            0.0000000000
     30674      2120  TIP3      OH2           -20.1370946726        6.8622893957       34.7155653359  TIP3      1920            0.0000000000
     30675      2120  TIP3      H1            -19.9707692478        6.4195941988       35.5712998375  TIP3      1920            0.0000000000
     30676      2120  TIP3      H2            -20.7616543076        6.2549773010       34.2781812912  TIP3      1920            0.0000000000
     30677      2121  TIP3      OH2           -13.0790908699        6.6107183404       37.0667064975  TIP3      1921            0.0000000000
     30678      2121  TIP3      H1            -13.4151822775        6.6564016737       36.1639660878  TIP3      1921            0.0000000000
     30679      2121  TIP3      H2            -12.1315885608        6.3485606642       37.0228225244  TIP3      1921            0.0000000000
     30680      2122  TIP3      OH2            -8.4394654694       11.7615820838       34.8537635926  TIP3      1922            0.0000000000
     30681      2122  TIP3      H1             -9.3641886571       11.9392027857       34.6141168444  TIP3      1922            0.0000000000
     30682      2122  TIP3      H2             -8.4799266065       12.0568544920       35.7818160963  TIP3      1922            0.0000000000
     30683      2123  TIP3      OH2            -2.7604641264        3.9553010855       23.2529002640  TIP3      1923            0.0000000000
     30684      2123  TIP3      H1             -3.3218298046        3.6143364323       22.5267234154  TIP3      1923            0.0000000000
     30685      2123  TIP3      H2             -2.7334626335        4.8921086439       22.9705948799  TIP3      1923            0.0000000000
     30686      2124  TIP3      OH2            -2.7222714213        9.8650357037       36.0181149591  TIP3      1924            0.0000000000
     30687      2124  TIP3      H1             -3.6639674881       10.0116145461       35.7204686476  TIP3      1924            0.0000000000
     30688      2124  TIP3      H2             -2.3112889291        9.7143572356       35.1383365202  TIP3      1924            0.0000000000
     30689      2125  TIP3      OH2            -7.2696137171        7.5842931497       30.7415386904  TIP3      1925            0.0000000000
     30690      2125  TIP3      H1             -8.2103331025        7.3858022782       30.6198313494  TIP3      1925            0.0000000000
     30691      2125  TIP3      H2             -6.8425213487        6.8255315673       30.3005968084  TIP3      1925            0.0000000000
     30692      2126  TIP3      OH2           -14.7640756833       11.9034658012       26.8280046375  TIP3      1926            0.0000000000
     30693      2126  TIP3      H1            -14.2609891471       12.7162619128       26.6464963365  TIP3      1926            0.0000000000
     30694      2126  TIP3      H2            -15.6396766108       12.1525549545       26.5099169277  TIP3      1926            0.0000000000
     30695      2127  TIP3      OH2           -19.0064491540        6.6585676331       21.5580800022  TIP3      1927            0.0000000000
     30696      2127  TIP3      H1            -18.4049564275        7.4035155258       21.7090512119  TIP3      1927            0.0000000000
     30697      2127  TIP3      H2            -19.8648894966        7.0790155990       21.6279326583  TIP3      1927            0.0000000000
     30698      2128  TIP3      OH2           -13.3321611706        9.5705339661       26.3728225561  TIP3      1928            0.0000000000
     30699      2128  TIP3      H1            -13.6412534497       10.4983408649       26.4405514919  TIP3      1928            0.0000000000
     30700      2128  TIP3      H2            -14.0647442983        9.0921058597       26.8053609008  TIP3      1928            0.0000000000
     30701      2129  TIP3      OH2           -12.8904494104       13.7670804548       32.7727561365  TIP3      1929            0.0000000000
     30702      2129  TIP3      H1            -12.4302770397       14.5698541261       32.4835298885  TIP3      1929            0.0000000000
     30703      2129  TIP3      H2            -12.2745396586       13.4230215219       33.4433337029  TIP3      1929            0.0000000000
     30704      2130  TIP3      OH2           -14.6386793736       14.5560542317       25.8802247550  TIP3      1930            0.0000000000
     30705      2130  TIP3      H1            -15.5950625470       14.6724476137       26.0644340934  TIP3      1930            0.0000000000
     30706      2130  TIP3      H2            -14.2982637982       15.3873390791       26.2582547423  TIP3      1930            0.0000000000
     30707      2131  TIP3      OH2            -9.3735553700        9.7588642260       32.3875238272  TIP3      1931            0.0000000000
     30708      2131  TIP3      H1             -9.6929576097        9.5660624287       33.2941138444  TIP3      1931            0.0000000000
     30709      2131  TIP3      H2             -8.7298463882        9.0520274148       32.2184020925  TIP3      1931            0.0000000000
     30710      2132  TIP3      OH2            -7.0578562050       10.7996179024       21.5183616991  TIP3      1932            0.0000000000
     30711      2132  TIP3      H1             -6.7400007373       10.3687354672       22.3172301142  TIP3      1932            0.0000000000
     30712      2132  TIP3      H2             -8.0075150445       10.6511495024       21.5553671243  TIP3      1932            0.0000000000
     30713      2133  TIP3      OH2            -6.5415083377       14.3425493504       34.8723021262  TIP3      1933            0.0000000000
     30714      2133  TIP3      H1             -7.2400116676       13.8530834259       34.3970708297  TIP3      1933            0.0000000000
     30715      2133  TIP3      H2             -6.3666371807       15.0460589423       34.2117708348  TIP3      1933            0.0000000000
     30716      2134  TIP3      OH2           -18.4933489987        1.5965380769       34.2612462905  TIP3      1934            0.0000000000
     30717      2134  TIP3      H1            -19.3967635200        1.9513013799       34.2454834109  TIP3      1934            0.0000000000
     30718      2134  TIP3      H2            -18.6008612666        0.7533624797       34.7278699911  TIP3      1934            0.0000000000
     30719      2135  TIP3      OH2            -6.2730280630        9.4501217803       23.7593193803  TIP3      1935            0.0000000000
     30720      2135  TIP3      H1             -6.4895635610        8.6444381678       24.2593222556  TIP3      1935            0.0000000000
     30721      2135  TIP3      H2             -5.3099428715        9.5382038323       23.8759752259  TIP3      1935            0.0000000000
     30722      2136  TIP3      OH2           -18.8789097982       13.3809578940       32.6916686048  TIP3      1936            0.0000000000
     30723      2136  TIP3      H1            -18.5706625415       12.4613206474       32.6991579857  TIP3      1936            0.0000000000
     30724      2136  TIP3      H2            -18.6141984525       13.6740279050       33.5715109663  TIP3      1936            0.0000000000
     30725      2137  TIP3      OH2           -17.5536354816        8.6893777166       22.9340901790  TIP3      1937            0.0000000000
     30726      2137  TIP3      H1            -18.3081915551        9.0436493872       23.4470011138  TIP3      1937            0.0000000000
     30727      2137  TIP3      H2            -17.1140048620        9.4824280198       22.6219507496  TIP3      1937            0.0000000000
     30728      2138  TIP3      OH2            -9.7975531939        1.3994252612       33.2724508903  TIP3      1938            0.0000000000
     30729      2138  TIP3      H1             -9.0365434025        1.4254915311       33.8640691339  TIP3      1938            0.0000000000
     30730      2138  TIP3      H2            -10.1333946162        0.4923150367       33.4246186227  TIP3      1938            0.0000000000
     30731      2139  TIP3      OH2            -9.0340478223        0.9754223784       24.3374233170  TIP3      1939            0.0000000000
     30732      2139  TIP3      H1             -8.7523274043        1.4068860178       23.5081140890  TIP3      1939            0.0000000000
     30733      2139  TIP3      H2             -8.4320189331        1.3873377045       24.9746104560  TIP3      1939            0.0000000000
     30734      2140  TIP3      OH2           -11.3320071065       13.1191266376       23.0991306922  TIP3      1940            0.0000000000
     30735      2140  TIP3      H1            -12.1621038079       13.6150927748       23.2130176954  TIP3      1940            0.0000000000
     30736      2140  TIP3      H2            -10.7571138176       13.5947588667       22.4946787837  TIP3      1940            0.0000000000
     30737      2141  TIP3      OH2           -11.8092711284        2.7126192473       25.1132698015  TIP3      1941            0.0000000000
     30738      2141  TIP3      H1            -11.0018462747        3.2653135278       25.1759537051  TIP3      1941            0.0000000000
     30739      2141  TIP3      H2            -12.0593266815        2.5524117090       26.0450626783  TIP3      1941            0.0000000000
     30740      2142  TIP3      OH2           -11.2655486010        3.7044265554       34.3892991689  TIP3      1942            0.0000000000
     30741      2142  TIP3      H1            -10.9993286113        4.2905940085       35.1106378900  TIP3      1942            0.0000000000
     30742      2142  TIP3      H2            -10.5703303259        3.0185583956       34.3676206586  TIP3      1942            0.0000000000
     30743      2143  TIP3      OH2           -10.9185511084       -0.2302690097       26.0404415552  TIP3      1943            0.0000000000
     30744      2143  TIP3      H1            -11.2520314037        0.4175370078       26.6822009614  TIP3      1943            0.0000000000
     30745      2143  TIP3      H2            -10.2303711975        0.3136864847       25.5796639896  TIP3      1943            0.0000000000
     30746      2144  TIP3      OH2           -13.9539992371       14.2054571312       23.1206638261  TIP3      1944            0.0000000000
     30747      2144  TIP3      H1            -13.7841046489       15.0239598766       22.6716763382  TIP3      1944            0.0000000000
     30748      2144  TIP3      H2            -14.1960936685       14.4436826813       24.0479990010  TIP3      1944            0.0000000000
     30749      2145  TIP3      OH2           -15.2817291321        0.8708453846       22.7703821248  TIP3      1945            0.0000000000
     30750      2145  TIP3      H1            -15.3045762253        1.7792540485       23.0927005690  TIP3      1945            0.0000000000
     30751      2145  TIP3      H2            -14.3812370355        0.5934532678       22.9999344713  TIP3      1945            0.0000000000
     30752      2146  TIP3      OH2            -5.0518436537        1.5934372274       35.1722110520  TIP3      1946            0.0000000000
     30753      2146  TIP3      H1             -5.9799155334        1.9036525818       35.0410739619  TIP3      1946            0.0000000000
     30754      2146  TIP3      H2             -4.7515968861        1.5745914186       34.2500797553  TIP3      1946            0.0000000000
     30755      2147  TIP3      OH2            -6.4419838406        5.3740280996       29.1806513422  TIP3      1947            0.0000000000
     30756      2147  TIP3      H1             -7.2638425925        4.9276933774       28.9051811336  TIP3      1947            0.0000000000
     30757      2147  TIP3      H2             -5.9780337554        4.6873296151       29.7062431088  TIP3      1947            0.0000000000
     30758      2148  TIP3      OH2           -18.8099765347        3.9441169004       21.0775794902  TIP3      1948            0.0000000000
     30759      2148  TIP3      H1            -18.6761253069        4.9219933187       21.0752216180  TIP3      1948            0.0000000000
     30760      2148  TIP3      H2            -19.5801956961        3.8794370882       20.5010048607  TIP3      1948            0.0000000000
     30761      2149  TIP3      OH2            -5.3747817308       14.6393228944       30.8512000854  TIP3      1949            0.0000000000
     30762      2149  TIP3      H1             -5.4622668966       15.3159910624       30.1529315098  TIP3      1949            0.0000000000
     30763      2149  TIP3      H2             -4.4092312147       14.6882541453       31.0215112562  TIP3      1949            0.0000000000
     30764      2150  TIP3      OH2           -17.9079005680       -1.2348911904       29.6758943713  TIP3      1950            0.0000000000
     30765      2150  TIP3      H1            -18.0510015425       -1.2284411869       28.6988062564  TIP3      1950            0.0000000000
     30766      2150  TIP3      H2            -18.2688617532       -2.1108762193       29.9085553758  TIP3      1950            0.0000000000
     30767      2151  TIP3      OH2           -18.9456616998       12.6884194240       25.7963040625  TIP3      1951            0.0000000000
     30768      2151  TIP3      H1            -19.7963794402       13.1433731489       25.7730490957  TIP3      1951            0.0000000000
     30769      2151  TIP3      H2            -18.4515385944       13.1434587928       25.1038883783  TIP3      1951            0.0000000000
     30770      2152  TIP3      OH2           -19.7293101550       15.3383223446       37.0787970783  TIP3      1952            0.0000000000
     30771      2152  TIP3      H1            -19.1216732680       15.1331859921       37.8178791836  TIP3      1952            0.0000000000
     30772      2152  TIP3      H2            -20.1295299800       14.4697798468       36.9016957003  TIP3      1952            0.0000000000
     30773      2153  TIP3      OH2           -15.0441007160       14.2462216647       38.6908660151  TIP3      1953            0.0000000000
     30774      2153  TIP3      H1            -14.2855815270       13.7574403926       39.0281962484  TIP3      1953            0.0000000000
     30775      2153  TIP3      H2            -15.0673672568       13.9657651160       37.7551354904  TIP3      1953            0.0000000000
     30776      2154  TIP3      OH2            -8.5396533886       12.6490925698       37.4639621846  TIP3      1954            0.0000000000
     30777      2154  TIP3      H1             -8.8559294840       11.7546143651       37.7132295715  TIP3      1954            0.0000000000
     30778      2154  TIP3      H2             -7.7590327579       12.7275725092       38.0335341383  TIP3      1954            0.0000000000
     30779      2155  TIP3      OH2           -19.8045893105        9.0980840268       38.0473163147  TIP3      1955            0.0000000000
     30780      2155  TIP3      H1            -19.6486016292        8.1813969607       37.7649371260  TIP3      1955            0.0000000000
     30781      2155  TIP3      H2            -20.5585246422        9.3579867156       37.4941372495  TIP3      1955            0.0000000000
     30782      2156  TIP3      OH2           -13.0615555562        9.1993784177       37.4441770452  TIP3      1956            0.0000000000
     30783      2156  TIP3      H1            -13.4383487618        9.4694990622       36.5837932143  TIP3      1956            0.0000000000
     30784      2156  TIP3      H2            -13.0171086445        8.2173261734       37.4203300238  TIP3      1956            0.0000000000
     30785      2157  TIP3      OH2            -7.3999619143        8.9453108688       34.8577744769  TIP3      1957            0.0000000000
     30786      2157  TIP3      H1             -6.6131917275        9.5271746178       34.8001943025  TIP3      1957            0.0000000000
     30787      2157  TIP3      H2             -8.1002239038        9.6139093996       34.8915056302  TIP3      1957            0.0000000000
     30788      2158  TIP3      OH2           -18.8908831956        6.3241164027       37.4591766227  TIP3      1958            0.0000000000
     30789      2158  TIP3      H1            -18.5028434022        5.4480607653       37.3690633908  TIP3      1958            0.0000000000
     30790      2158  TIP3      H2            -19.1146646994        6.3395366473       38.4037898624  TIP3      1958            0.0000000000
     30791      2159  TIP3      OH2           -14.1921807447        7.4693451668       22.5088238911  TIP3      1959            0.0000000000
     30792      2159  TIP3      H1            -14.7676205156        6.9800306916       23.1312106552  TIP3      1959            0.0000000000
     30793      2159  TIP3      H2            -13.9989300472        6.7673819682       21.8733525962  TIP3      1959            0.0000000000
     30794      2160  TIP3      OH2           -14.9439496615        5.3354065441       34.8508481880  TIP3      1960            0.0000000000
     30795      2160  TIP3      H1            -15.6506936519        5.9935498151       35.0345050579  TIP3      1960            0.0000000000
     30796      2160  TIP3      H2            -14.6675330221        5.6427336672       33.9619602998  TIP3      1960            0.0000000000
     30797      2161  TIP3      OH2            -9.9184370736        7.8086504333       38.1222011106  TIP3      1961            0.0000000000
     30798      2161  TIP3      H1             -8.9531099988        7.8466994562       38.0395350790  TIP3      1961            0.0000000000
     30799      2161  TIP3      H2            -10.0613820375        7.0794853522       38.7434877503  TIP3      1961            0.0000000000
     30800      2162  TIP3      OH2            -3.7033121890        8.0142460895       20.1277706784  TIP3      1962            0.0000000000
     30801      2162  TIP3      H1             -4.1640145874        7.6615443799       19.3572856816  TIP3      1962            0.0000000000
     30802      2162  TIP3      H2             -3.8159176160        8.9640457212       19.9638522713  TIP3      1962            0.0000000000
     30803      2163  TIP3      OH2           -14.4710841298        2.7193029041       35.8371948855  TIP3      1963            0.0000000000
     30804      2163  TIP3      H1            -14.4959283871        1.9220769208       35.2577614870  TIP3      1963            0.0000000000
     30805      2163  TIP3      H2            -14.7674586720        3.4098379304       35.2229990925  TIP3      1963            0.0000000000
     30806      2164  TIP3      OH2           -14.1867131778        1.0580367974       33.4346280805  TIP3      1964            0.0000000000
     30807      2164  TIP3      H1            -13.6695800834        1.4853943865       32.7112909113  TIP3      1964            0.0000000000
     30808      2164  TIP3      H2            -15.0716035179        0.9368872645       33.0145808433  TIP3      1964            0.0000000000
     30809      2165  TIP3      OH2           -12.6225510067        6.5188626285       33.7041156563  TIP3      1965            0.0000000000
     30810      2165  TIP3      H1            -11.8932116626        6.3641021438       33.0876583154  TIP3      1965            0.0000000000
     30811      2165  TIP3      H2            -13.0062881849        7.3404284591       33.3335235597  TIP3      1965            0.0000000000
     30812      2166  TIP3      OH2            -8.2645494572        4.2644816973       38.6133939119  TIP3      1966            0.0000000000
     30813      2166  TIP3      H1             -7.9914011558        3.3362504182       38.5597900729  TIP3      1966            0.0000000000
     30814      2166  TIP3      H2             -7.4034239382        4.7189429425       38.6665762423  TIP3      1966            0.0000000000
     30815      2167  TIP3      OH2            -6.9055232773        7.0631509106       36.7956285316  TIP3      1967            0.0000000000
     30816      2167  TIP3      H1             -7.1573785235        7.7851323680       36.1798376930  TIP3      1967            0.0000000000
     30817      2167  TIP3      H2             -5.9448010139        7.0372133952       36.6116231279  TIP3      1967            0.0000000000
     30818      2168  TIP3      OH2           -16.1252239760        3.9008667864       37.7732011879  TIP3      1968            0.0000000000
     30819      2168  TIP3      H1            -16.9146510036        3.3281967616       37.6542434066  TIP3      1968            0.0000000000
     30820      2168  TIP3      H2            -15.5010871835        3.4779294823       37.1722670795  TIP3      1968            0.0000000000
     30821      2169  TIP3      OH2           -13.3927760947       -1.5355575270       33.8088381009  TIP3      1969            0.0000000000
     30822      2169  TIP3      H1            -13.5771015877       -0.5763714005       33.7094990419  TIP3      1969            0.0000000000
     30823      2169  TIP3      H2            -14.1432572772       -1.9034320413       33.3113495695  TIP3      1969            0.0000000000
     30824      2170  TIP3      OH2           -12.2143288858        2.8903546285       37.4346933586  TIP3      1970            0.0000000000
     30825      2170  TIP3      H1            -12.4018717138        2.5433744036       38.3392257550  TIP3      1970            0.0000000000
     30826      2170  TIP3      H2            -12.9255997494        2.4562447338       36.9322642992  TIP3      1970            0.0000000000
     30827      2171  TIP3      OH2            -9.4011159383        1.9675451507       36.5558360958  TIP3      1971            0.0000000000
     30828      2171  TIP3      H1            -10.3628698424        1.9588458305       36.6461103878  TIP3      1971            0.0000000000
     30829      2171  TIP3      H2             -9.1106041363        1.3024583859       37.2143958365  TIP3      1971            0.0000000000
     30830      2172  TIP3      OH2            -7.8317441626        0.5630191495       38.4262896254  TIP3      1972            0.0000000000
     30831      2172  TIP3      H1             -7.8664720246       -0.4151308347       38.4617538460  TIP3      1972            0.0000000000
     30832      2172  TIP3      H2             -8.0682956770        0.8535237922       39.3289812638  TIP3      1972            0.0000000000
     30833      2173  TIP3      OH2           -18.0226506785        1.8437593091       37.5403464944  TIP3      1973            0.0000000000
     30834      2173  TIP3      H1            -17.8154783509        1.0909759074       36.9652946764  TIP3      1973            0.0000000000
     30835      2173  TIP3      H2            -18.1340122531        1.4006524802       38.4078650093  TIP3      1973            0.0000000000
     30836      2174  TIP3      OH2           -13.1792137945       -2.1369269129       36.5180926706  TIP3      1974            0.0000000000
     30837      2174  TIP3      H1            -12.5003680047       -2.8412425717       36.4996557758  TIP3      1974            0.0000000000
     30838      2174  TIP3      H2            -13.2911403002       -1.9923358581       35.5580559032  TIP3      1974            0.0000000000
     30839      2175  TIP3      OH2           -12.8025926978       -0.5063648032       38.6170247618  TIP3      1975            0.0000000000
     30840      2175  TIP3      H1            -12.9914637720       -1.0408139227       37.8036839520  TIP3      1975            0.0000000000
     30841      2175  TIP3      H2            -13.4365104095        0.2267225107       38.5435243074  TIP3      1975            0.0000000000
     30842      2176  TIP3      OH2           -21.0054378998       16.3449977690       26.2309561488  TIP3      1976            0.0000000000
     30843      2176  TIP3      H1            -21.7394816272       15.8663733395       25.7858112809  TIP3      1976            0.0000000000
     30844      2176  TIP3      H2            -20.7361002308       15.7041037904       26.9203454533  TIP3      1976            0.0000000000
     30845      2177  TIP3      OH2           -20.2057129215       14.4738177032       28.1189240108  TIP3      1977            0.0000000000
     30846      2177  TIP3      H1            -20.5449762505       13.5956804639       28.3357455839  TIP3      1977            0.0000000000
     30847      2177  TIP3      H2            -19.9686041279       14.8127550328       28.9985087726  TIP3      1977            0.0000000000
     30848      2178  TIP3      OH2            -2.6536232620       15.2791493112       31.0452596103  TIP3      1978            0.0000000000
     30849      2178  TIP3      H1             -2.6222174905       15.4391876715       32.0041906139  TIP3      1978            0.0000000000
     30850      2178  TIP3      H2             -1.9502776453       15.8622272608       30.7419780383  TIP3      1978            0.0000000000
     30851      2179  TIP3      OH2            -3.0720970277       14.8706153155       33.9959333473  TIP3      1979            0.0000000000
     30852      2179  TIP3      H1             -3.5581136881       14.1142290608       33.6009798530  TIP3      1979            0.0000000000
     30853      2179  TIP3      H2             -2.5941452348       14.4297600760       34.7091362171  TIP3      1979            0.0000000000
     30854      2180  TIP3      OH2            -4.6214740906       10.5800420764       38.6510978463  TIP3      1980            0.0000000000
     30855      2180  TIP3      H1             -5.5327709118       10.5609062617       39.0193563637  TIP3      1980            0.0000000000
     30856      2180  TIP3      H2             -4.2682274756       11.3847651032       39.0769074007  TIP3      1980            0.0000000000
     30857      2181  TIP3      OH2            -3.2996698297        8.8947557563       24.0813840493  TIP3      1981            0.0000000000
     30858      2181  TIP3      H1             -2.4769056938        9.3369635918       24.2930947069  TIP3      1981            0.0000000000
     30859      2181  TIP3      H2             -3.3359574430        8.2029968908       24.7720472160  TIP3      1981            0.0000000000
     30860      2182  TIP3      OH2            -2.9202468056        6.9622217046       25.9750407108  TIP3      1982            0.0000000000
     30861      2182  TIP3      H1             -3.7210748312        6.5123063763       26.3322182599  TIP3      1982            0.0000000000
     30862      2182  TIP3      H2             -2.3842047861        7.1333937467       26.7739751277  TIP3      1982            0.0000000000
     30863      2183  TIP3      OH2            -3.2023290027        9.6923781239       30.9660323186  TIP3      1983            0.0000000000
     30864      2183  TIP3      H1             -2.3905935661        9.3188524092       30.5836083146  TIP3      1983            0.0000000000
     30865      2183  TIP3      H2             -3.0589503271       10.6480490703       30.7968833088  TIP3      1983            0.0000000000
     30866      2184  TIP3      OH2            -4.6339880069       12.5972338354       33.2440710025  TIP3      1984            0.0000000000
     30867      2184  TIP3      H1             -5.3288322590       12.9444532628       33.8223030603  TIP3      1984            0.0000000000
     30868      2184  TIP3      H2             -5.1821075360       12.2023683624       32.5293121552  TIP3      1984            0.0000000000
     30869      2185  TIP3      OH2            -2.6081267614        6.8267034346       22.3413800229  TIP3      1985            0.0000000000
     30870      2185  TIP3      H1             -3.1772102135        7.2027632510       21.6357842754  TIP3      1985            0.0000000000
     30871      2185  TIP3      H2             -2.7547260287        7.5231746451       23.0094551862  TIP3      1985            0.0000000000
     30872      2186  TIP3      OH2            -4.3459211439        4.0858486473       20.9057863295  TIP3      1986            0.0000000000
     30873      2186  TIP3      H1             -4.2638171787        4.7194018196       20.1937650540  TIP3      1986            0.0000000000
     30874      2186  TIP3      H2             -4.4422078861        3.2377385960       20.4315659323  TIP3      1986            0.0000000000
     30875      2187  TIP3      OH2            -5.1395075732        5.4775510520       26.5531905122  TIP3      1987            0.0000000000
     30876      2187  TIP3      H1             -5.2865750288        4.5197086758       26.5075078901  TIP3      1987            0.0000000000
     30877      2187  TIP3      H2             -5.4674407072        5.6850240886       27.4478191878  TIP3      1987            0.0000000000
     30878      2188  TIP3      OH2           -20.1341643068        7.5585061062       30.6070449470  TIP3      1988            0.0000000000
     30879      2188  TIP3      H1            -19.9587667259        7.4773357187       29.6461450585  TIP3      1988            0.0000000000
     30880      2188  TIP3      H2            -19.2414178993        7.3823770427       30.9632060776  TIP3      1988            0.0000000000
     30881      2189  TIP3      OH2            -4.2679138011        7.4423561975       36.2593722652  TIP3      1989            0.0000000000
     30882      2189  TIP3      H1             -3.6690044711        6.6696873570       36.3979654157  TIP3      1989            0.0000000000
     30883      2189  TIP3      H2             -3.6755590022        8.2101007750       36.2433438979  TIP3      1989            0.0000000000
     30884      2190  TIP3      OH2            -2.7621183083        5.3463203680       36.7795877208  TIP3      1990            0.0000000000
     30885      2190  TIP3      H1             -3.6484490587        4.9271483410       36.7661981891  TIP3      1990            0.0000000000
     30886      2190  TIP3      H2             -2.2065674265        4.5517460246       36.8475344228  TIP3      1990            0.0000000000
     30887      2191  TIP3      OH2            -5.4624028815        3.0613248769       25.0453038756  TIP3      1991            0.0000000000
     30888      2191  TIP3      H1             -5.1800008779        2.1191469537       25.1130758602  TIP3      1991            0.0000000000
     30889      2191  TIP3      H2             -4.6811111495        3.4430240365       24.6162953773  TIP3      1991            0.0000000000
     30890      2192  TIP3      OH2            -4.8332452384        3.6004710953       30.4567251070  TIP3      1992            0.0000000000
     30891      2192  TIP3      H1             -3.8747154959        3.8334552668       30.4415665646  TIP3      1992            0.0000000000
     30892      2192  TIP3      H2             -5.0274645308        3.7410288759       31.3958178888  TIP3      1992            0.0000000000
     30893      2193  TIP3      OH2            -4.7635051685        4.3249007720       33.2375791778  TIP3      1993            0.0000000000
     30894      2193  TIP3      H1             -5.6475324277        4.6160083488       33.5486331091  TIP3      1993            0.0000000000
     30895      2193  TIP3      H2             -4.3307709960        5.1819857610       33.0128715573  TIP3      1993            0.0000000000
     30896      2194  TIP3      OH2           -20.5017267399        2.8625190591       36.7693690033  TIP3      1994            0.0000000000
     30897      2194  TIP3      H1            -19.5684757634        2.6436941787       36.9615246974  TIP3      1994            0.0000000000
     30898      2194  TIP3      H2            -20.9703381423        2.0399263508       37.0357260007  TIP3      1994            0.0000000000
     30899      2195  TIP3      OH2            -2.4850465300       -1.6065667508       38.5766428999  TIP3      1995            0.0000000000
     30900      2195  TIP3      H1             -2.1405288455       -2.2677748045       37.9509887754  TIP3      1995            0.0000000000
     30901      2195  TIP3      H2             -2.3912694150       -0.7865794478       38.0489532009  TIP3      1995            0.0000000000
     30902      2196  TIP3      OH2            -4.8209865962        0.3425747544       25.0674829974  TIP3      1996            0.0000000000
     30903      2196  TIP3      H1             -4.5995089067       -0.1210789236       25.8983389861  TIP3      1996            0.0000000000
     30904      2196  TIP3      H2             -5.4087976300       -0.2918602258       24.5948934491  TIP3      1996            0.0000000000
     30905      2197  TIP3      OH2           -19.3375660802        1.1291927670       29.6326603278  TIP3      1997            0.0000000000
     30906      2197  TIP3      H1            -18.8157156148        0.3304363876       29.8545867895  TIP3      1997            0.0000000000
     30907      2197  TIP3      H2            -18.7792905566        1.8428215106       29.9805851303  TIP3      1997            0.0000000000
     30908      2198  TIP3      OH2           -21.0362441326        4.1578144936       30.6586952985  TIP3      1998            0.0000000000
     30909      2198  TIP3      H1            -20.4617489840        3.8999251614       29.9095403482  TIP3      1998            0.0000000000
     30910      2198  TIP3      H2            -20.5674115410        4.9608197516       30.9223971653  TIP3      1998            0.0000000000
     30911      2199  TIP3      OH2            -2.9839688452        0.4590501322       36.9139667422  TIP3      1999            0.0000000000
     30912      2199  TIP3      H1             -3.9155797740        0.7526623321       36.8601509240  TIP3      1999            0.0000000000
     30913      2199  TIP3      H2             -2.9536940232       -0.0770609397       36.1101726828  TIP3      1999            0.0000000000
     30914      2200  TIP3      OH2           -20.6934716044        0.5068520894       24.7624808725  TIP3      2000            0.0000000000
     30915      2200  TIP3      H1            -21.6229134594        0.5437756726       24.5460704049  TIP3      2000            0.0000000000
     30916      2200  TIP3      H2            -20.2081952852        0.8667385374       23.9970711733  TIP3      2000            0.0000000000
     30917      2201  TIP3      OH2            -5.9267115131       15.3445581284       26.6951984525  TIP3      2001            0.0000000000
     30918      2201  TIP3      H1             -5.2790328598       15.0625824412       26.0282695752  TIP3      2001            0.0000000000
     30919      2201  TIP3      H2             -5.3974205132       15.8708388423       27.3032978573  TIP3      2001            0.0000000000
     30920      2202  TIP3      OH2           -20.7431792615       -0.9546314069       32.9851517202  TIP3      2002            0.0000000000
     30921      2202  TIP3      H1            -21.3660528103       -1.1132665191       33.7225333972  TIP3      2002            0.0000000000
     30922      2202  TIP3      H2            -21.1639290168       -0.2129726796       32.5150886226  TIP3      2002            0.0000000000
     30923      2203  TIP3      OH2           -18.4802265920       12.2473817253       37.1884145412  TIP3      2003            0.0000000000
     30924      2203  TIP3      H1            -19.3142092606       12.4820365369       36.7468511152  TIP3      2003            0.0000000000
     30925      2203  TIP3      H2            -18.7538010232       12.1878443680       38.1069360668  TIP3      2003            0.0000000000
     30926      2204  TIP3      OH2           -15.5816529531       13.2731847808       33.4617469118  TIP3      2004            0.0000000000
     30927      2204  TIP3      H1            -15.9107453163       14.1408756151       33.1902765593  TIP3      2004            0.0000000000
     30928      2204  TIP3      H2            -14.6551412344       13.3555925951       33.1548827927  TIP3      2004            0.0000000000
     30929      2205  TIP3      OH2           -11.2630996672       14.6966794678       36.3621933911  TIP3      2005            0.0000000000
     30930      2205  TIP3      H1            -11.1221347548       14.3417986678       37.2697920264  TIP3      2005            0.0000000000
     30931      2205  TIP3      H2            -10.3623338819       15.0004293932       36.1158813592  TIP3      2005            0.0000000000
     30932      2206  TIP3      OH2            -8.9754331338       15.9529378625       35.6793205183  TIP3      2006            0.0000000000
     30933      2206  TIP3      H1             -8.2474679131       15.3733580289       35.4221719615  TIP3      2006            0.0000000000
     30934      2206  TIP3      H2             -8.6021084864       16.4095724867       36.4562096905  TIP3      2006            0.0000000000
     30935      2207  TIP3      OH2            -3.9522071579       -1.4250518019       34.7797642082  TIP3      2007            0.0000000000
     30936      2207  TIP3      H1             -4.7810316002       -1.1260386636       34.3689173812  TIP3      2007            0.0000000000
     30937      2207  TIP3      H2             -3.7863782364       -2.2495378860       34.2638578877  TIP3      2007            0.0000000000
     30938      2208  TIP3      OH2           -18.1593022143       16.5076794761       33.4509554087  TIP3      2008            0.0000000000
     30939      2208  TIP3      H1            -18.8883885878       17.0077544659       33.0571466160  TIP3      2008            0.0000000000
     30940      2208  TIP3      H2            -18.4662445026       16.3170968503       34.3488246515  TIP3      2008            0.0000000000
     30941      2209  TIP3      OH2           -15.6893456898       16.0828604647       32.5276301408  TIP3      2009            0.0000000000
     30942      2209  TIP3      H1            -16.5814101607       16.2347639431       32.9202575638  TIP3      2009            0.0000000000
     30943      2209  TIP3      H2            -15.7452979841       16.6736725419       31.7554028808  TIP3      2009            0.0000000000
     30944      2210  TIP3      OH2           -10.9807989699       16.0000250718       31.6927236207  TIP3      2010            0.0000000000
     30945      2210  TIP3      H1            -11.4439714065       16.5553077241       31.0496153164  TIP3      2010            0.0000000000
     30946      2210  TIP3      H2            -10.8512312093       16.6279482283       32.4329256032  TIP3      2010            0.0000000000
     30947      2211  TIP3      OH2            -8.6962734880       14.8036562518       32.7309651662  TIP3      2011            0.0000000000
     30948      2211  TIP3      H1             -9.5472166374       15.0829204862       32.3553307553  TIP3      2011            0.0000000000
     30949      2211  TIP3      H2             -8.2078330292       15.6399875215       32.6341579136  TIP3      2011            0.0000000000
     30950      2212  TIP3      OH2            -6.1117539987       16.3736412586       32.9449972077  TIP3      2012            0.0000000000
     30951      2212  TIP3      H1             -6.1629582092       17.3330014773       32.7174247883  TIP3      2012            0.0000000000
     30952      2212  TIP3      H2             -5.8929725118       15.9988467335       32.0677233205  TIP3      2012            0.0000000000
     30953      2213  TIP3      OH2           -18.6947922671       15.1555430583       30.3958758699  TIP3      2013            0.0000000000
     30954      2213  TIP3      H1            -18.7793127514       14.6952026096       31.2583045722  TIP3      2013            0.0000000000
     30955      2213  TIP3      H2            -17.8809308613       14.7746282387       30.0087655259  TIP3      2013            0.0000000000
     30956      2214  TIP3      OH2           -16.6188415537       13.8659541292       29.0480829930  TIP3      2014            0.0000000000
     30957      2214  TIP3      H1            -16.7835883407       12.9347812774       29.2840193852  TIP3      2014            0.0000000000
     30958      2214  TIP3      H2            -15.7655549439       14.0232208479       29.5038282323  TIP3      2014            0.0000000000
     30959      2215  TIP3      OH2           -14.0122224221       14.3545659342       29.9302912404  TIP3      2015            0.0000000000
     30960      2215  TIP3      H1            -13.8630927400       13.4291367061       29.6671387868  TIP3      2015            0.0000000000
     30961      2215  TIP3      H2            -13.9720202444       14.2963545707       30.8950692506  TIP3      2015            0.0000000000
     30962      2216  TIP3      OH2           -10.5676086896        0.0026712384       29.0510610589  TIP3      2016            0.0000000000
     30963      2216  TIP3      H1            -11.2391875974       -0.6383713056       29.3443252299  TIP3      2016            0.0000000000
     30964      2216  TIP3      H2            -10.0110026546       -0.5369335389       28.4780158501  TIP3      2016            0.0000000000
     30965      2217  TIP3      OH2            -5.4303083503       -1.9527473607       29.1266061468  TIP3      2017            0.0000000000
     30966      2217  TIP3      H1             -4.8163744821       -1.3549639559       28.6296007558  TIP3      2017            0.0000000000
     30967      2217  TIP3      H2             -6.3122303139       -1.5910186463       28.8914771492  TIP3      2017            0.0000000000
     30968      2218  TIP3      OH2            -3.7501657385       -0.6833620901       27.4067644335  TIP3      2018            0.0000000000
     30969      2218  TIP3      H1             -3.0660539112       -1.2642982597       26.9951349711  TIP3      2018            0.0000000000
     30970      2218  TIP3      H2             -3.2466681189        0.1468935487       27.5337795158  TIP3      2018            0.0000000000
     30971      2219  TIP3      OH2           -18.2329807112       -1.4028186971       26.9980342608  TIP3      2019            0.0000000000
     30972      2219  TIP3      H1            -18.9345315334       -1.5671455738       26.3506089666  TIP3      2019            0.0000000000
     30973      2219  TIP3      H2            -17.7000992966       -2.2089809237       26.8319149619  TIP3      2019            0.0000000000
     30974      2220  TIP3      OH2           -19.5764297953       -1.5912958490       22.6172918313  TIP3      2020            0.0000000000
     30975      2220  TIP3      H1            -18.9490410109       -1.0303754732       22.1666462523  TIP3      2020            0.0000000000
     30976      2220  TIP3      H2            -19.9937777958       -1.0131786717       23.2554645903  TIP3      2020            0.0000000000
     30977      2221  TIP3      OH2           -13.7049578011       -1.4478138474       26.6984725381  TIP3      2021            0.0000000000
     30978      2221  TIP3      H1            -12.8163615241       -1.0759886458       26.6349969874  TIP3      2021            0.0000000000
     30979      2221  TIP3      H2            -13.7604705787       -1.6739215265       27.6251903671  TIP3      2021            0.0000000000
     30980      2222  TIP3      OH2            -8.0166921253       -1.4290772004       28.3279807976  TIP3      2022            0.0000000000
     30981      2222  TIP3      H1             -8.0661783835       -1.3182383428       27.3676862064  TIP3      2022            0.0000000000
     30982      2222  TIP3      H2             -8.3960060719       -2.3338841828       28.4519723261  TIP3      2022            0.0000000000
     30983      2223  TIP3      OH2            -6.7209207257       -1.4103330286       24.0420122468  TIP3      2023            0.0000000000
     30984      2223  TIP3      H1             -7.4389838075       -0.8054011434       23.8071996191  TIP3      2023            0.0000000000
     30985      2223  TIP3      H2             -7.1824571980       -2.2640764748       24.2126684849  TIP3      2023            0.0000000000
     30986      2224  TIP3      OH2           -19.4575901556       14.3760692432       23.5898210349  TIP3      2024            0.0000000000
     30987      2224  TIP3      H1            -20.1536207020       14.2778907346       22.9258414041  TIP3      2024            0.0000000000
     30988      2224  TIP3      H2            -19.5544984825       15.2909503810       23.8739373884  TIP3      2024            0.0000000000
     30989      2225  TIP3      OH2           -12.5074756878        0.5773532461       23.5493431308  TIP3      2025            0.0000000000
     30990      2225  TIP3      H1            -12.3623652118       -0.0109953319       24.3038327516  TIP3      2025            0.0000000000
     30991      2225  TIP3      H2            -12.5324713184        1.4374636293       24.0161626309  TIP3      2025            0.0000000000
     30992      2226  TIP3      OH2            -3.8104887232       15.1156403546       24.7143214678  TIP3      2026            0.0000000000
     30993      2226  TIP3      H1             -4.2118914995       14.4252732956       24.1334827943  TIP3      2026            0.0000000000
     30994      2226  TIP3      H2             -4.0553160135       15.8434624101       24.1202615158  TIP3      2026            0.0000000000
     30995      2227  TIP3      OH2           -18.3125093437       -0.8320483942       36.3660372884  TIP3      2027            0.0000000000
     30996      2227  TIP3      H1            -18.7054848266       -1.6309111712       36.7665415675  TIP3      2027            0.0000000000
     30997      2227  TIP3      H2            -17.4023619448       -0.8757145508       36.7477716170  TIP3      2027            0.0000000000
     30998      2228  TIP3      OH2           -16.3039059155       -1.4462612587       38.0100822503  TIP3      2028            0.0000000000
     30999      2228  TIP3      H1            -15.4104255460       -1.7851009615       37.7903751298  TIP3      2028            0.0000000000
     31000      2228  TIP3      H2            -16.6817494037       -2.2567872189       38.4101037897  TIP3      2028            0.0000000000
     31001      2229  TIP3      OH2            -7.9078363964       -2.1629273102       38.1564111978  TIP3      2029            0.0000000000
     31002      2229  TIP3      H1             -7.8126942658       -2.6343790682       39.0069741498  TIP3      2029            0.0000000000
     31003      2229  TIP3      H2             -6.9893578878       -2.1953725852       37.8140437093  TIP3      2029            0.0000000000
     31004      2230  TIP3      OH2            -4.6938680552       13.8665637531       36.8022592041  TIP3      2030            0.0000000000
     31005      2230  TIP3      H1             -5.4802031199       13.7348540121       36.2260275907  TIP3      2030            0.0000000000
     31006      2230  TIP3      H2             -4.7970812651       14.8228031879       36.9801463668  TIP3      2030            0.0000000000
     31007      2231  TIP3      OH2             9.7434777322        7.7940337895       26.8090956191  TIP3      2031            0.0000000000
     31008      2231  TIP3      H1              9.7303498881        8.7684544344       26.7167447103  TIP3      2031            0.0000000000
     31009      2231  TIP3      H2              9.0587605608        7.5239915429       26.1745079250  TIP3      2031            0.0000000000
     31010      2232  TIP3      OH2             8.6074250111        7.0160968613       30.2553061575  TIP3      2032            0.0000000000
     31011      2232  TIP3      H1              8.5921276974        6.3743616796       30.9806571355  TIP3      2032            0.0000000000
     31012      2232  TIP3      H2              8.2614764453        6.5062916156       29.5097127833  TIP3      2032            0.0000000000
     31013      2233  TIP3      OH2             0.9734035834        6.6787100331       31.7925618534  TIP3      2033            0.0000000000
     31014      2233  TIP3      H1              1.0329043679        6.0190525530       32.5184127825  TIP3      2033            0.0000000000
     31015      2233  TIP3      H2              1.7115354795        7.2593247124       32.0404483192  TIP3      2033            0.0000000000
     31016      2234  TIP3      OH2            12.2894257426        9.9720809892       28.5533264146  TIP3      2034            0.0000000000
     31017      2234  TIP3      H1             11.8761782995        9.2547504603       29.0441946174  TIP3      2034            0.0000000000
     31018      2234  TIP3      H2             12.3161967403       10.6784581959       29.2254602331  TIP3      2034            0.0000000000
     31019      2235  TIP3      OH2             1.8864093678       11.1573864892       30.3153778563  TIP3      2035            0.0000000000
     31020      2235  TIP3      H1              1.5639372849       10.2957390020       30.0015477296  TIP3      2035            0.0000000000
     31021      2235  TIP3      H2              2.8397580132       10.9649481245       30.3679153416  TIP3      2035            0.0000000000
     31022      2236  TIP3      OH2            -1.3938866367        4.7574206099       25.7500904963  TIP3      2036            0.0000000000
     31023      2236  TIP3      H1             -1.9270334641        5.5829969182       25.7659403260  TIP3      2036            0.0000000000
     31024      2236  TIP3      H2             -2.0081027556        4.1862411204       25.2492700228  TIP3      2036            0.0000000000
     31025      2237  TIP3      OH2            -0.7779850999        6.9038875317       27.9099939675  TIP3      2037            0.0000000000
     31026      2237  TIP3      H1             -0.5087223025        6.1334382803       28.4533910371  TIP3      2037            0.0000000000
     31027      2237  TIP3      H2             -0.0686501809        7.1523724724       27.3169736715  TIP3      2037            0.0000000000
     31028      2238  TIP3      OH2             9.4162927633       15.1323346968       28.7968311663  TIP3      2038            0.0000000000
     31029      2238  TIP3      H1             10.0598240038       14.4400782438       28.5069133807  TIP3      2038            0.0000000000
     31030      2238  TIP3      H2              9.1924254523       14.7913184000       29.6623762391  TIP3      2038            0.0000000000
     31031      2239  TIP3      OH2             6.9793904352        9.4177114879       30.7468918959  TIP3      2039            0.0000000000
     31032      2239  TIP3      H1              7.3173071188        8.7948887754       30.0832260663  TIP3      2039            0.0000000000
     31033      2239  TIP3      H2              7.7919040995        9.5800973423       31.2580680937  TIP3      2039            0.0000000000
     31034      2240  TIP3      OH2            15.5851501878        1.0858521481       31.4668776965  TIP3      2040            0.0000000000
     31035      2240  TIP3      H1             15.7455316938        1.6727388876       32.2377858825  TIP3      2040            0.0000000000
     31036      2240  TIP3      H2             16.1457791347        1.5194126102       30.8105396741  TIP3      2040            0.0000000000
     31037      2241  TIP3      OH2            10.1454576362        3.8904845429       31.0390547715  TIP3      2041            0.0000000000
     31038      2241  TIP3      H1             10.3116009459        2.9329189608       31.0452165595  TIP3      2041            0.0000000000
     31039      2241  TIP3      H2             10.0466831627        4.0222561812       30.0718323819  TIP3      2041            0.0000000000
     31040      2242  TIP3      OH2             3.2368041367        1.9739389476       28.2762361973  TIP3      2042            0.0000000000
     31041      2242  TIP3      H1              3.4094316400        2.7843882244       27.7761489112  TIP3      2042            0.0000000000
     31042      2242  TIP3      H2              2.8785448987        1.3763562560       27.5839630733  TIP3      2042            0.0000000000
     31043      2243  TIP3      OH2            11.0140952174        2.0003526332       27.0376804742  TIP3      2043            0.0000000000
     31044      2243  TIP3      H1             11.8544735123        1.7010362702       27.4449622956  TIP3      2043            0.0000000000
     31045      2243  TIP3      H2             11.3486619185        2.4946945506       26.2447140489  TIP3      2043            0.0000000000
     31046      2244  TIP3      OH2             0.0084126603        4.4531551199       28.9376047027  TIP3      2044            0.0000000000
     31047      2244  TIP3      H1              0.5245027049        3.8335536635       29.5064853127  TIP3      2044            0.0000000000
     31048      2244  TIP3      H2             -0.1267994952        3.9092263912       28.1503578908  TIP3      2044            0.0000000000
     31049      2245  TIP3      OH2             5.0261665927        5.9385826998       28.3203875201  TIP3      2045            0.0000000000
     31050      2245  TIP3      H1              5.7193592643        5.3812150757       28.7232764576  TIP3      2045            0.0000000000
     31051      2245  TIP3      H2              4.5464869635        5.2637137269       27.8170783632  TIP3      2045            0.0000000000
     31052      2246  TIP3      OH2            16.0363726260        2.4818542096       33.7411118025  TIP3      2046            0.0000000000
     31053      2246  TIP3      H1             15.4258660899        3.2429474912       33.6221384850  TIP3      2046            0.0000000000
     31054      2246  TIP3      H2             16.0523324217        2.4075067061       34.7016302178  TIP3      2046            0.0000000000
     31055      2247  TIP3      OH2             2.1725340046        0.8837809179       32.3061395038  TIP3      2047            0.0000000000
     31056      2247  TIP3      H1              1.8851892962        1.4499234117       31.5630298854  TIP3      2047            0.0000000000
     31057      2247  TIP3      H2              1.4948389964        1.1069358475       32.9921514125  TIP3      2047            0.0000000000
     31058      2248  TIP3      OH2             9.4505168429       10.3562262455       25.8687833859  TIP3      2048            0.0000000000
     31059      2248  TIP3      H1              9.1887449788       10.0963362626       24.9708657845  TIP3      2048            0.0000000000
     31060      2248  TIP3      H2              9.1476035731       11.2904783585       25.9095565615  TIP3      2048            0.0000000000
     31061      2249  TIP3      OH2             4.6864509922        8.5201124371       32.5448974039  TIP3      2049            0.0000000000
     31062      2249  TIP3      H1              3.9861651097        9.1665414088       32.7608702108  TIP3      2049            0.0000000000
     31063      2249  TIP3      H2              5.3947256215        9.1181740257       32.2577947880  TIP3      2049            0.0000000000
     31064      2250  TIP3      OH2            12.8981179038        1.3877003627       28.6524890470  TIP3      2050            0.0000000000
     31065      2250  TIP3      H1             12.5907092671        0.6461643566       29.1813698078  TIP3      2050            0.0000000000
     31066      2250  TIP3      H2             13.5067790047        1.8611915193       29.2300558588  TIP3      2050            0.0000000000
     31067      2251  TIP3      OH2             1.7141079790        2.7886263461       30.2928635405  TIP3      2051            0.0000000000
     31068      2251  TIP3      H1              2.3750656780        3.4073998989       30.6803924221  TIP3      2051            0.0000000000
     31069      2251  TIP3      H2              2.2631694945        2.3081999023       29.6194114081  TIP3      2051            0.0000000000
     31070      2252  TIP3      OH2             3.1128549974       10.5259313434       33.3857817434  TIP3      2052            0.0000000000
     31071      2252  TIP3      H1              3.0922967208       11.4337199917       33.0249226402  TIP3      2052            0.0000000000
     31072      2252  TIP3      H2              2.2311814141       10.4577329498       33.8015820304  TIP3      2052            0.0000000000
     31073      2253  TIP3      OH2            12.8178078139       11.8095556744       30.9226927078  TIP3      2053            0.0000000000
     31074      2253  TIP3      H1             11.8498962107       11.9225374626       31.0415343846  TIP3      2053            0.0000000000
     31075      2253  TIP3      H2             13.0878999386       12.7244875509       30.7185660505  TIP3      2053            0.0000000000
     31076      2254  TIP3      OH2            13.1437668460        0.0951091426       32.3098480072  TIP3      2054            0.0000000000
     31077      2254  TIP3      H1             12.4126886249        0.7259380015       32.2179083251  TIP3      2054            0.0000000000
     31078      2254  TIP3      H2             13.8441687277        0.5120061568       31.7686565451  TIP3      2054            0.0000000000
     31079      2255  TIP3      OH2             6.1057678027       -1.7871710751       29.7773640113  TIP3      2055            0.0000000000
     31080      2255  TIP3      H1              5.9608192016       -2.7503260333       29.7001256379  TIP3      2055            0.0000000000
     31081      2255  TIP3      H2              5.2275137423       -1.4809436540       30.0828665506  TIP3      2055            0.0000000000
     31082      2256  TIP3      OH2            11.0912797641       13.5969231047       27.5260296604  TIP3      2056            0.0000000000
     31083      2256  TIP3      H1             11.5027318404       12.8736922229       27.0044976673  TIP3      2056            0.0000000000
     31084      2256  TIP3      H2             11.5165815443       14.3807917640       27.1192550341  TIP3      2056            0.0000000000
     31085      2257  TIP3      OH2            12.3142903687       11.5152377928       26.0162637811  TIP3      2057            0.0000000000
     31086      2257  TIP3      H1             12.0036270986       10.8255218905       25.4017193542  TIP3      2057            0.0000000000
     31087      2257  TIP3      H2             12.3186211834       11.0236171005       26.8582616559  TIP3      2057            0.0000000000
     31088      2258  TIP3      OH2            13.9046071227       10.1170008775       34.5210754266  TIP3      2058            0.0000000000
     31089      2258  TIP3      H1             14.0534894272        9.4601485912       33.8054103807  TIP3      2058            0.0000000000
     31090      2258  TIP3      H2             14.1138359210       10.9551063225       34.0706942490  TIP3      2058            0.0000000000
     31091      2259  TIP3      OH2             8.3833330710        7.0809849920       24.2545130176  TIP3      2059            0.0000000000
     31092      2259  TIP3      H1              7.6933395453        7.6221657185       23.8577548466  TIP3      2059            0.0000000000
     31093      2259  TIP3      H2              9.1128596819        7.0746602092       23.5979970240  TIP3      2059            0.0000000000
     31094      2260  TIP3      OH2            15.7939421204        6.4346822403       32.5695197480  TIP3      2060            0.0000000000
     31095      2260  TIP3      H1             15.1328840495        7.1534760331       32.6094264259  TIP3      2060            0.0000000000
     31096      2260  TIP3      H2             16.2739572898        6.6757924382       31.7591691208  TIP3      2060            0.0000000000
     31097      2261  TIP3      OH2            11.8857780214        7.2325616708       25.2282907391  TIP3      2061            0.0000000000
     31098      2261  TIP3      H1             11.1255625657        7.4400943570       25.8181976529  TIP3      2061            0.0000000000
     31099      2261  TIP3      H2             12.3238323619        6.5297230994       25.7417601205  TIP3      2061            0.0000000000
     31100      2262  TIP3      OH2            11.7824285147        5.3793701697       34.3335050412  TIP3      2062            0.0000000000
     31101      2262  TIP3      H1             11.7900088805        6.2002882985       34.8529745176  TIP3      2062            0.0000000000
     31102      2262  TIP3      H2             11.1538337484        5.6706927148       33.6402041717  TIP3      2062            0.0000000000
     31103      2263  TIP3      OH2             3.4299845647        7.8602808113       27.1270434207  TIP3      2063            0.0000000000
     31104      2263  TIP3      H1              3.2066826061        7.5197433257       26.2356154236  TIP3      2063            0.0000000000
     31105      2263  TIP3      H2              4.1097049767        7.2201739989       27.4567230560  TIP3      2063            0.0000000000
     31106      2264  TIP3      OH2             4.7735414770       11.2524509602       29.8092275428  TIP3      2064            0.0000000000
     31107      2264  TIP3      H1              4.7796885782       10.7355940955       28.9920052761  TIP3      2064            0.0000000000
     31108      2264  TIP3      H2              5.5654731029       10.9026998216       30.2619025103  TIP3      2064            0.0000000000
     31109      2265  TIP3      OH2             3.7793698783        6.6363614684       30.7667937278  TIP3      2065            0.0000000000
     31110      2265  TIP3      H1              4.3749789664        6.7340135380       30.0016585558  TIP3      2065            0.0000000000
     31111      2265  TIP3      H2              4.1789597335        7.2742270120       31.4042353852  TIP3      2065            0.0000000000
     31112      2266  TIP3      OH2            10.2173514570       12.1913485324       31.4949522614  TIP3      2066            0.0000000000
     31113      2266  TIP3      H1              9.9243173719       12.8301186824       32.1516449556  TIP3      2066            0.0000000000
     31114      2266  TIP3      H2              9.9553360740       11.3400107427       31.9157132200  TIP3      2066            0.0000000000
     31115      2267  TIP3      OH2             4.7261491168       11.0297901735       35.5004575928  TIP3      2067            0.0000000000
     31116      2267  TIP3      H1              4.3432633896       11.8050484164       35.9599358187  TIP3      2067            0.0000000000
     31117      2267  TIP3      H2              4.0884031230       10.8611914001       34.7690873704  TIP3      2067            0.0000000000
     31118      2268  TIP3      OH2            10.6431425403        6.4683426004       22.9122112836  TIP3      2068            0.0000000000
     31119      2268  TIP3      H1             11.2270399674        6.5900593875       23.7005777553  TIP3      2068            0.0000000000
     31120      2268  TIP3      H2             11.1344986521        6.9182096856       22.2282882362  TIP3      2068            0.0000000000
     31121      2269  TIP3      OH2             1.6960020728        7.2589188834       34.5965285771  TIP3      2069            0.0000000000
     31122      2269  TIP3      H1              1.7558402789        7.8284268617       35.3815583415  TIP3      2069            0.0000000000
     31123      2269  TIP3      H2              0.7409994969        7.2560972080       34.4327979983  TIP3      2069            0.0000000000
     31124      2270  TIP3      OH2             8.4480385026       13.1360213075       26.3549575997  TIP3      2070            0.0000000000
     31125      2270  TIP3      H1              8.8783279555       13.4414013054       27.1587092691  TIP3      2070            0.0000000000
     31126      2270  TIP3      H2              7.8874438518       13.8813113450       26.1132980683  TIP3      2070            0.0000000000
     31127      2271  TIP3      OH2             2.9772437104       13.0277297878       36.2360403736  TIP3      2071            0.0000000000
     31128      2271  TIP3      H1              2.9438581020       13.0013090498       35.2633636631  TIP3      2071            0.0000000000
     31129      2271  TIP3      H2              2.0410617994       12.9876303130       36.4810933651  TIP3      2071            0.0000000000
     31130      2272  TIP3      OH2            14.4242074547       -1.8284144305       22.8102814839  TIP3      2072            0.0000000000
     31131      2272  TIP3      H1             13.4699241450       -1.7164884482       22.9920558664  TIP3      2072            0.0000000000
     31132      2272  TIP3      H2             14.6211392876       -1.0092757352       22.3290240842  TIP3      2072            0.0000000000
     31133      2273  TIP3      OH2             2.4064477264        6.8593387089       24.7647361990  TIP3      2073            0.0000000000
     31134      2273  TIP3      H1              2.1864772147        7.6924145279       24.2984446728  TIP3      2073            0.0000000000
     31135      2273  TIP3      H2              1.7408098393        6.2459713610       24.4512750565  TIP3      2073            0.0000000000
     31136      2274  TIP3      OH2            -1.4686411146        9.3196220817       33.6680380787  TIP3      2074            0.0000000000
     31137      2274  TIP3      H1             -1.9154959826        9.2571905728       32.7939330589  TIP3      2074            0.0000000000
     31138      2274  TIP3      H2             -1.4034353325        8.3569174901       33.8317460557  TIP3      2074            0.0000000000
     31139      2275  TIP3      OH2            -1.7201114785       12.0603901494       30.4287234302  TIP3      2075            0.0000000000
     31140      2275  TIP3      H1             -0.7616518429       11.9489060099       30.3737044141  TIP3      2075            0.0000000000
     31141      2275  TIP3      H2             -1.7949645564       12.8838275138       30.9268163378  TIP3      2075            0.0000000000
     31142      2276  TIP3      OH2            16.5262877913       12.7677651042       36.1072423459  TIP3      2076            0.0000000000
     31143      2276  TIP3      H1             16.4061150359       11.8070778801       36.0764293019  TIP3      2076            0.0000000000
     31144      2276  TIP3      H2             15.6507195995       13.0142618908       36.4896890411  TIP3      2076            0.0000000000
     31145      2277  TIP3      OH2             7.4867604426       12.3080519906       34.9625348082  TIP3      2077            0.0000000000
     31146      2277  TIP3      H1              7.5421964849       13.1487571502       35.4741016515  TIP3      2077            0.0000000000
     31147      2277  TIP3      H2              6.6223980372       11.9431697949       35.2226119492  TIP3      2077            0.0000000000
     31148      2278  TIP3      OH2             7.9105667505       16.0445062817       24.7596248089  TIP3      2078            0.0000000000
     31149      2278  TIP3      H1              7.8185761079       15.9621416639       23.7955946338  TIP3      2078            0.0000000000
     31150      2278  TIP3      H2              7.9214250526       17.0073301531       24.9057486495  TIP3      2078            0.0000000000
     31151      2279  TIP3      OH2             1.5564094928       14.9322096678       26.5999384815  TIP3      2079            0.0000000000
     31152      2279  TIP3      H1              1.7059856106       14.5057442670       27.4678888433  TIP3      2079            0.0000000000
     31153      2279  TIP3      H2              0.7076867287       14.5220739270       26.3601425363  TIP3      2079            0.0000000000
     31154      2280  TIP3      OH2            11.0891815188       15.2079417912       21.7432728340  TIP3      2080            0.0000000000
     31155      2280  TIP3      H1             11.1383069832       14.3369366788       21.3726183455  TIP3      2080            0.0000000000
     31156      2280  TIP3      H2             10.9174843364       14.9896060886       22.7000202364  TIP3      2080            0.0000000000
     31157      2281  TIP3      OH2            10.6396344123       15.1855124037       24.4896823723  TIP3      2081            0.0000000000
     31158      2281  TIP3      H1              9.6847067996       15.2742479073       24.6926934568  TIP3      2081            0.0000000000
     31159      2281  TIP3      H2             10.8925047158       14.4719042852       25.1007643183  TIP3      2081            0.0000000000
     31160      2282  TIP3      OH2            13.6701767286        4.2316956262       36.5731141191  TIP3      2082            0.0000000000
     31161      2282  TIP3      H1             13.1943596926        4.6824579522       35.8564876125  TIP3      2082            0.0000000000
     31162      2282  TIP3      H2             13.6545616711        3.3120998779       36.2700412043  TIP3      2082            0.0000000000
     31163      2283  TIP3      OH2             0.7434286301       10.6884114065       34.6369489081  TIP3      2083            0.0000000000
     31164      2283  TIP3      H1              1.1257213122       10.1982794511       35.3973152133  TIP3      2083            0.0000000000
     31165      2283  TIP3      H2             -0.0293512585       10.1975998278       34.2737538256  TIP3      2083            0.0000000000
     31166      2284  TIP3      OH2             3.4913408575       -0.8747746279       30.5144213748  TIP3      2084            0.0000000000
     31167      2284  TIP3      H1              2.5861641452       -1.0121975829       30.1603350777  TIP3      2084            0.0000000000
     31168      2284  TIP3      H2              3.3551353151       -0.0537469188       31.0147012296  TIP3      2084            0.0000000000
     31169      2285  TIP3      OH2             8.1363093096       -1.2197257638       33.8853841993  TIP3      2085            0.0000000000
     31170      2285  TIP3      H1              8.5255196728       -1.6417942932       34.6742544712  TIP3      2085            0.0000000000
     31171      2285  TIP3      H2              7.1634167800       -1.3378112904       34.0247267637  TIP3      2085            0.0000000000
     31172      2286  TIP3      OH2            11.4216469984        2.6285798608       34.7880482763  TIP3      2086            0.0000000000
     31173      2286  TIP3      H1             10.8570939784        2.4150072348       35.5712827977  TIP3      2086            0.0000000000
     31174      2286  TIP3      H2             11.2374637853        3.5568121471       34.5621280586  TIP3      2086            0.0000000000
     31175      2287  TIP3      OH2             3.5762787512        4.0852687565       31.7575425336  TIP3      2087            0.0000000000
     31176      2287  TIP3      H1              2.8695180240        4.0824874662       32.4317519572  TIP3      2087            0.0000000000
     31177      2287  TIP3      H2              3.5535919615        5.0084821829       31.4275555189  TIP3      2087            0.0000000000
     31178      2288  TIP3      OH2             3.4532964427        4.2660895666       26.6230728879  TIP3      2088            0.0000000000
     31179      2288  TIP3      H1              2.6340031741        3.7803674842       26.4593092578  TIP3      2088            0.0000000000
     31180      2288  TIP3      H2              3.9674437773        3.9306473922       25.8452417424  TIP3      2088            0.0000000000
     31181      2289  TIP3      OH2             8.9014971633        5.0818428608       25.7157387530  TIP3      2089            0.0000000000
     31182      2289  TIP3      H1              8.5707321617        5.7156025064       25.0455831591  TIP3      2089            0.0000000000
     31183      2289  TIP3      H2              9.5330667344        4.6015872905       25.1116465156  TIP3      2089            0.0000000000
     31184      2290  TIP3      OH2             8.1277647337        4.9241553507       36.8480646201  TIP3      2090            0.0000000000
     31185      2290  TIP3      H1              7.6023247922        4.1497359813       37.1500590510  TIP3      2090            0.0000000000
     31186      2290  TIP3      H2              8.9636133882        4.7961903071       37.3264936717  TIP3      2090            0.0000000000
     31187      2291  TIP3      OH2            10.0906338101        4.2158617212       28.2741682758  TIP3      2091            0.0000000000
     31188      2291  TIP3      H1              9.8213663984        4.7510832238       27.5001134996  TIP3      2091            0.0000000000
     31189      2291  TIP3      H2             10.2297854580        3.3598857861       27.8038793696  TIP3      2091            0.0000000000
     31190      2292  TIP3      OH2             1.2141544428        4.3363707225       33.4464564024  TIP3      2092            0.0000000000
     31191      2292  TIP3      H1              1.3033402561        4.7442747004       34.3258799005  TIP3      2092            0.0000000000
     31192      2292  TIP3      H2              0.7780381434        3.4990512883       33.6770260676  TIP3      2092            0.0000000000
     31193      2293  TIP3      OH2            -2.0987178810        1.4943671423       27.4303212654  TIP3      2093            0.0000000000
     31194      2293  TIP3      H1             -1.4524427043        1.3736770145       28.1551413762  TIP3      2093            0.0000000000
     31195      2293  TIP3      H2             -1.6881822186        1.0480013573       26.6667440438  TIP3      2093            0.0000000000
     31196      2294  TIP3      OH2            -0.7900117573        2.2438291378       22.9209065545  TIP3      2094            0.0000000000
     31197      2294  TIP3      H1             -0.4261916630        2.7168407019       22.1733461897  TIP3      2094            0.0000000000
     31198      2294  TIP3      H2             -1.5888415168        2.7788860235       23.0895265139  TIP3      2094            0.0000000000
     31199      2295  TIP3      OH2             9.3033428900        5.7815966223       32.8117718896  TIP3      2095            0.0000000000
     31200      2295  TIP3      H1              9.6874662903        5.0952027239       32.2293838460  TIP3      2095            0.0000000000
     31201      2295  TIP3      H2              8.8363497794        5.2541388098       33.4848872762  TIP3      2095            0.0000000000
     31202      2296  TIP3      OH2             6.0872527442        1.7551071683       27.6714009948  TIP3      2096            0.0000000000
     31203      2296  TIP3      H1              5.1629736842        1.7412522922       27.9824648514  TIP3      2096            0.0000000000
     31204      2296  TIP3      H2              6.5997936816        1.5954885226       28.4776682978  TIP3      2096            0.0000000000
     31205      2297  TIP3      OH2             0.8672185438        3.1888724251       26.4649221085  TIP3      2097            0.0000000000
     31206      2297  TIP3      H1             -0.0178641407        3.2960867419       26.0456569514  TIP3      2097            0.0000000000
     31207      2297  TIP3      H2              1.1665036452        2.3294513679       26.0736308855  TIP3      2097            0.0000000000
     31208      2298  TIP3      OH2             4.5154674334        3.4018578063       24.2289097057  TIP3      2098            0.0000000000
     31209      2298  TIP3      H1              5.4963549875        3.4202762201       24.3098930938  TIP3      2098            0.0000000000
     31210      2298  TIP3      H2              4.3380153459        3.9913397122       23.4844423677  TIP3      2098            0.0000000000
     31211      2299  TIP3      OH2            10.5151000639        0.9958017406       30.8925520774  TIP3      2099            0.0000000000
     31212      2299  TIP3      H1              9.8204634158        1.0402804797       31.5875587164  TIP3      2099            0.0000000000
     31213      2299  TIP3      H2             10.0130389799        0.7522195650       30.0988927859  TIP3      2099            0.0000000000
     31214      2300  TIP3      OH2             3.2223159545        4.6837379242       21.6660155570  TIP3      2100            0.0000000000
     31215      2300  TIP3      H1              2.7429897515        4.0838358034       21.0797712680  TIP3      2100            0.0000000000
     31216      2300  TIP3      H2              4.1097313753        4.6766651420       21.2762634436  TIP3      2100            0.0000000000
     31217      2301  TIP3      OH2            13.7118053104       16.6370722963       37.2166437621  TIP3      2101            0.0000000000
     31218      2301  TIP3      H1             13.9786738324       17.0199439266       36.3619373687  TIP3      2101            0.0000000000
     31219      2301  TIP3      H2             14.4359818456       16.9568578729       37.7759691341  TIP3      2101            0.0000000000
     31220      2302  TIP3      OH2             1.3913194894        9.1772386338       36.8235144973  TIP3      2102            0.0000000000
     31221      2302  TIP3      H1              2.1961137607        9.3025191410       37.3771385124  TIP3      2102            0.0000000000
     31222      2302  TIP3      H2              0.7571538570        9.0288617675       37.5498229208  TIP3      2102            0.0000000000
     31223      2303  TIP3      OH2             7.3772275151        4.5182055675       29.5563985477  TIP3      2103            0.0000000000
     31224      2303  TIP3      H1              7.9858340259        4.0008826572       29.0134179948  TIP3      2103            0.0000000000
     31225      2303  TIP3      H2              7.2406984269        3.9634456416       30.3371762788  TIP3      2103            0.0000000000
     31226      2304  TIP3      OH2             2.3985328597        0.6749227099       25.9835212387  TIP3      2104            0.0000000000
     31227      2304  TIP3      H1              2.0763055586       -0.2494827481       25.9803680818  TIP3      2104            0.0000000000
     31228      2304  TIP3      H2              3.1867851799        0.5690846154       25.4275395929  TIP3      2104            0.0000000000
     31229      2305  TIP3      OH2             6.0256118525        2.8433743717       31.9589814024  TIP3      2105            0.0000000000
     31230      2305  TIP3      H1              5.2039787300        3.3632756264       32.0444412760  TIP3      2105            0.0000000000
     31231      2305  TIP3      H2              6.5841549215        3.1958382785       32.6784761019  TIP3      2105            0.0000000000
     31232      2306  TIP3      OH2             6.5804924030        9.0639510298       23.6386706755  TIP3      2106            0.0000000000
     31233      2306  TIP3      H1              5.7968371406        8.5784040574       23.3330946592  TIP3      2106            0.0000000000
     31234      2306  TIP3      H2              6.4051750898        9.1962292684       24.5883820381  TIP3      2106            0.0000000000
     31235      2307  TIP3      OH2            13.8058331543        8.2717163461       32.4587609208  TIP3      2107            0.0000000000
     31236      2307  TIP3      H1             14.3671461605        8.7542828175       31.8246604631  TIP3      2107            0.0000000000
     31237      2307  TIP3      H2             12.9451367680        8.3129106114       31.9951505879  TIP3      2107            0.0000000000
     31238      2308  TIP3      OH2            10.4024272779        1.9121548047       21.7708717294  TIP3      2108            0.0000000000
     31239      2308  TIP3      H1              9.4736959565        2.0645992100       21.7077465451  TIP3      2108            0.0000000000
     31240      2308  TIP3      H2             10.7848813902        2.7134533281       22.1532868587  TIP3      2108            0.0000000000
     31241      2309  TIP3      OH2             8.1091441749        9.3397561779       34.9002059937  TIP3      2109            0.0000000000
     31242      2309  TIP3      H1              7.7595205340        8.9075592198       35.6863752559  TIP3      2109            0.0000000000
     31243      2309  TIP3      H2              7.8521420882       10.2601782704       35.0088372458  TIP3      2109            0.0000000000
     31244      2310  TIP3      OH2            12.1123274883        4.3104385070       22.9165848648  TIP3      2110            0.0000000000
     31245      2310  TIP3      H1             11.9916331066        3.7424681347       23.7271522653  TIP3      2110            0.0000000000
     31246      2310  TIP3      H2             11.2159964205        4.7241744730       22.9877307423  TIP3      2110            0.0000000000
     31247      2311  TIP3      OH2             1.6861992631        8.3899269864       29.4017849563  TIP3      2111            0.0000000000
     31248      2311  TIP3      H1              2.4390794450        8.3875582848       28.7859435227  TIP3      2111            0.0000000000
     31249      2311  TIP3      H2              1.8190803338        7.5985445905       29.9501298116  TIP3      2111            0.0000000000
     31250      2312  TIP3      OH2             8.7547959527       10.5020079096       22.8173383692  TIP3      2112            0.0000000000
     31251      2312  TIP3      H1              8.3646516632       11.3785403279       22.9855865297  TIP3      2112            0.0000000000
     31252      2312  TIP3      H2              7.9716139807        9.9211362999       22.8749523873  TIP3      2112            0.0000000000
     31253      2313  TIP3      OH2            -1.2897237857        6.8858067744       34.7537532203  TIP3      2113            0.0000000000
     31254      2313  TIP3      H1             -1.1236098584        6.3866901767       35.5805593486  TIP3      2113            0.0000000000
     31255      2313  TIP3      H2             -1.8882890427        6.2616235492       34.2909972526  TIP3      2113            0.0000000000
     31256      2314  TIP3      OH2             5.7268063377        6.4244058760       36.8945236992  TIP3      2114            0.0000000000
     31257      2314  TIP3      H1              5.4143055285        6.1097093597       36.0338062000  TIP3      2114            0.0000000000
     31258      2314  TIP3      H2              6.6498633817        6.1011203739       36.8932725850  TIP3      2114            0.0000000000
     31259      2315  TIP3      OH2            10.4172846686       11.7608262756       34.8498118886  TIP3      2115            0.0000000000
     31260      2315  TIP3      H1              9.4921018292       11.9390843975       34.6154694559  TIP3      2115            0.0000000000
     31261      2315  TIP3      H2             10.3837654006       12.0551203858       35.7800510219  TIP3      2115            0.0000000000
     31262      2316  TIP3      OH2            16.0841566180        3.9613224244       23.1932888424  TIP3      2116            0.0000000000
     31263      2316  TIP3      H1             15.4560937982        3.5641915948       22.5725058031  TIP3      2116            0.0000000000
     31264      2316  TIP3      H2             16.1013849697        4.8930543507       22.9597512102  TIP3      2116            0.0000000000
     31265      2317  TIP3      OH2            16.0695713542        9.8034270720       36.0403430625  TIP3      2117            0.0000000000
     31266      2317  TIP3      H1             15.1767607260       10.0239259159       35.6758407894  TIP3      2117            0.0000000000
     31267      2317  TIP3      H2             16.6149418252        9.7493494639       35.2283681893  TIP3      2117            0.0000000000
     31268      2318  TIP3      OH2            14.3129333194       12.7856185516       23.5895038351  TIP3      2118            0.0000000000
     31269      2318  TIP3      H1             14.0130307636       11.9467042336       23.9767186328  TIP3      2118            0.0000000000
     31270      2318  TIP3      H2             14.6944417076       12.5278616844       22.7399566534  TIP3      2118            0.0000000000
     31271      2319  TIP3      OH2            11.5775280908        7.5714369500       30.7383135193  TIP3      2119            0.0000000000
     31272      2319  TIP3      H1             10.6364166914        7.3718373586       30.6130226655  TIP3      2119            0.0000000000
     31273      2319  TIP3      H2             11.9961421746        6.8149326018       30.2803691522  TIP3      2119            0.0000000000
     31274      2320  TIP3      OH2             4.0914886796       11.9036876590       26.8211943691  TIP3      2120            0.0000000000
     31275      2320  TIP3      H1              4.5876590671       12.7146805317       26.6309650777  TIP3      2120            0.0000000000
     31276      2320  TIP3      H2              3.2120841635       12.1547500338       26.5127975615  TIP3      2120            0.0000000000
     31277      2321  TIP3      OH2             5.5129702520        9.5987918981       26.3585287376  TIP3      2121            0.0000000000
     31278      2321  TIP3      H1              5.1980197015       10.5167854380       26.4599298576  TIP3      2121            0.0000000000
     31279      2321  TIP3      H2              4.8067352713        9.1046036435       26.8044610253  TIP3      2121            0.0000000000
     31280      2322  TIP3      OH2             5.9557353597       13.7678478645       32.7742944714  TIP3      2122            0.0000000000
     31281      2322  TIP3      H1              6.4223876589       14.5681358694       32.4825458370  TIP3      2122            0.0000000000
     31282      2322  TIP3      H2              6.5852396939       13.4203388164       33.4326750898  TIP3      2122            0.0000000000
     31283      2323  TIP3      OH2             4.1885160191       14.5554989978       25.9159017093  TIP3      2123            0.0000000000
     31284      2323  TIP3      H1              3.2228244794       14.6929487727       26.0422092581  TIP3      2123            0.0000000000
     31285      2323  TIP3      H2              4.5490985972       15.4053648927       26.2297900718  TIP3      2123            0.0000000000
     31286      2324  TIP3      OH2             9.4814544782        9.7579337653       32.3844239643  TIP3      2124            0.0000000000
     31287      2324  TIP3      H1              9.1648725688        9.5695776489       33.2926116616  TIP3      2124            0.0000000000
     31288      2324  TIP3      H2             10.1271530362        9.0521749250       32.2185217024  TIP3      2124            0.0000000000
     31289      2325  TIP3      OH2            12.3093953040       14.3447217720       34.8728607968  TIP3      2125            0.0000000000
     31290      2325  TIP3      H1             11.6150918924       13.8520907730       34.3956826639  TIP3      2125            0.0000000000
     31291      2325  TIP3      H2             12.4896907970       15.0456516445       34.2114448267  TIP3      2125            0.0000000000
     31292      2326  TIP3      OH2             0.3617477990        1.5945682821       34.2299210903  TIP3      2126            0.0000000000
     31293      2326  TIP3      H1             -0.5397833118        1.9557702233       34.2460079525  TIP3      2126            0.0000000000
     31294      2326  TIP3      H2              0.2614189527        0.7633949681       34.7261594898  TIP3      2126            0.0000000000
     31295      2327  TIP3      OH2            12.6055920417        9.4626479025       23.7471463665  TIP3      2127            0.0000000000
     31296      2327  TIP3      H1             12.3595901322        8.6791133468       24.2707097480  TIP3      2127            0.0000000000
     31297      2327  TIP3      H2             13.5596407859        9.5103164623       23.8891001854  TIP3      2127            0.0000000000
     31298      2328  TIP3      OH2            -0.0274082637       13.3697568347       32.7041489001  TIP3      2128            0.0000000000
     31299      2328  TIP3      H1              0.2975038693       12.4632670586       32.6875736399  TIP3      2128            0.0000000000
     31300      2328  TIP3      H2              0.2605287635       13.6863427925       33.5662910154  TIP3      2128            0.0000000000
     31301      2329  TIP3      OH2             5.6235907879       11.7850286090       19.8287309776  TIP3      2129            0.0000000000
     31302      2329  TIP3      H1              6.2164834109       11.1367612066       19.4227896228  TIP3      2129            0.0000000000
     31303      2329  TIP3      H2              5.6259690820       11.5023300156       20.7646974729  TIP3      2129            0.0000000000
     31304      2330  TIP3      OH2             4.6600165486       11.4278285571       22.4255609169  TIP3      2130            0.0000000000
     31305      2330  TIP3      H1              5.0204580089       10.9221359644       23.1621184163  TIP3      2130            0.0000000000
     31306      2330  TIP3      H2              4.7883212797       12.3552656037       22.7314712359  TIP3      2130            0.0000000000
     31307      2331  TIP3      OH2             9.0982430765        1.3727432042       33.2319272785  TIP3      2131            0.0000000000
     31308      2331  TIP3      H1              9.8154687241        1.4326055385       33.8719755854  TIP3      2131            0.0000000000
     31309      2331  TIP3      H2              8.7160361681        0.4959503517       33.4351843397  TIP3      2131            0.0000000000
     31310      2332  TIP3      OH2             9.9117122189        0.3055366978       24.1938903447  TIP3      2132            0.0000000000
     31311      2332  TIP3      H1              9.9403565033        1.0577643339       23.5467751068  TIP3      2132            0.0000000000
     31312      2332  TIP3      H2             10.2592279112        0.9588917138       24.8364732946  TIP3      2132            0.0000000000
     31313      2333  TIP3      OH2             7.5409102450       13.1077440337       23.1243210678  TIP3      2133            0.0000000000
     31314      2333  TIP3      H1              6.7157308077       13.6123112965       23.1913975592  TIP3      2133            0.0000000000
     31315      2333  TIP3      H2              8.0254852155       13.6322148922       22.4722156171  TIP3      2133            0.0000000000
     31316      2334  TIP3      OH2             7.0123240331        2.7330189109       25.1170383714  TIP3      2134            0.0000000000
     31317      2334  TIP3      H1              7.8695374334        3.2154839245       25.1451428581  TIP3      2134            0.0000000000
     31318      2334  TIP3      H2              6.8137059293        2.5487595152       26.0574628986  TIP3      2134            0.0000000000
     31319      2335  TIP3      OH2             7.6461417715        3.7247388381       34.3068283397  TIP3      2135            0.0000000000
     31320      2335  TIP3      H1              7.7057485538        4.2709093999       35.1163086271  TIP3      2135            0.0000000000
     31321      2335  TIP3      H2              8.2943782558        3.0195456832       34.4183944879  TIP3      2135            0.0000000000
     31322      2336  TIP3      OH2             7.9286670691       -0.2551210349       26.0351201580  TIP3      2136            0.0000000000
     31323      2336  TIP3      H1              7.5993846278        0.4131709611       26.6576228780  TIP3      2136            0.0000000000
     31324      2336  TIP3      H2              8.6199712479        0.2759280379       25.5690174849  TIP3      2136            0.0000000000
     31325      2337  TIP3      OH2             4.8757846760       14.1824967931       23.1284949967  TIP3      2137            0.0000000000
     31326      2337  TIP3      H1              5.1166448312       14.9842713632       22.6442306707  TIP3      2137            0.0000000000
     31327      2337  TIP3      H2              4.6543783706       14.4916965684       24.0336228295  TIP3      2137            0.0000000000
     31328      2338  TIP3      OH2             3.5672776911        0.8552951294       22.7777512264  TIP3      2138            0.0000000000
     31329      2338  TIP3      H1              3.5473567887        1.7674612083       23.0888082350  TIP3      2138            0.0000000000
     31330      2338  TIP3      H2              4.4917546325        0.6076551746       22.9814539456  TIP3      2138            0.0000000000
     31331      2339  TIP3      OH2            13.8040623281        1.5841183298       35.1696971304  TIP3      2139            0.0000000000
     31332      2339  TIP3      H1             12.8774163669        1.9033375741       35.0424030221  TIP3      2139            0.0000000000
     31333      2339  TIP3      H2             14.1045970209        1.5722362236       34.2454609075  TIP3      2139            0.0000000000
     31334      2340  TIP3      OH2            12.4156446538        5.3851744944       29.2071988279  TIP3      2140            0.0000000000
     31335      2340  TIP3      H1             11.6013084883        4.9325669217       28.9072506274  TIP3      2140            0.0000000000
     31336      2340  TIP3      H2             12.8927263185        4.6806571101       29.6981446463  TIP3      2140            0.0000000000
     31337      2341  TIP3      OH2            13.4822490080       14.6375090001       30.8499032269  TIP3      2141            0.0000000000
     31338      2341  TIP3      H1             13.3941645010       15.3177915524       30.1524498473  TIP3      2141            0.0000000000
     31339      2341  TIP3      H2             14.4457036556       14.6882384272       31.0226420782  TIP3      2141            0.0000000000
     31340      2342  TIP3      OH2             0.9685370495       -1.2426601702       29.6624226973  TIP3      2142            0.0000000000
     31341      2342  TIP3      H1              0.7814494004       -1.2267362476       28.6965553138  TIP3      2142            0.0000000000
     31342      2342  TIP3      H2              0.5594920353       -2.0987620181       29.9088333593  TIP3      2142            0.0000000000
     31343      2343  TIP3      OH2            -0.0684725005       12.7305089726       25.8505143731  TIP3      2143            0.0000000000
     31344      2343  TIP3      H1             -0.9434859073       13.1168211078       25.7345189753  TIP3      2143            0.0000000000
     31345      2343  TIP3      H2              0.3944921780       13.1218790667       25.0953152818  TIP3      2143            0.0000000000
     31346      2344  TIP3      OH2            -0.8611815707       15.3256195519       37.0753806962  TIP3      2144            0.0000000000
     31347      2344  TIP3      H1             -0.2677753941       15.1356930377       37.8284256004  TIP3      2144            0.0000000000
     31348      2344  TIP3      H2             -1.2946891235       14.4756853521       36.9131909880  TIP3      2144            0.0000000000
     31349      2345  TIP3      OH2             3.8109124355       14.2563711416       38.7014892759  TIP3      2145            0.0000000000
     31350      2345  TIP3      H1              4.5660504222       13.7495808005       39.0311905685  TIP3      2145            0.0000000000
     31351      2345  TIP3      H2              3.8064175314       13.9879208896       37.7642796082  TIP3      2145            0.0000000000
     31352      2346  TIP3      OH2            10.3169085679       12.6321586109       37.4433515008  TIP3      2146            0.0000000000
     31353      2346  TIP3      H1             10.0022485743       11.7447974933       37.7183862070  TIP3      2146            0.0000000000
     31354      2346  TIP3      H2             11.0866352679       12.7510020972       38.0346680182  TIP3      2146            0.0000000000
     31355      2347  TIP3      OH2            -1.0089502585        9.0055024776       38.1654124131  TIP3      2147            0.0000000000
     31356      2347  TIP3      H1             -0.8426765729        8.0629900595       37.9147276716  TIP3      2147            0.0000000000
     31357      2347  TIP3      H2             -1.8397538752        9.1919684844       37.7136423672  TIP3      2147            0.0000000000
     31358      2348  TIP3      OH2             5.7666265564        9.0924755606       37.4672674054  TIP3      2148            0.0000000000
     31359      2348  TIP3      H1              5.4321434691        9.4057347128       36.6025082659  TIP3      2148            0.0000000000
     31360      2348  TIP3      H2              5.8340272807        8.1134673013       37.3565113509  TIP3      2148            0.0000000000
     31361      2349  TIP3      OH2            11.4569812511        8.9485998429       34.8590899363  TIP3      2149            0.0000000000
     31362      2349  TIP3      H1             12.2454466677        9.5307022736       34.7978889408  TIP3      2149            0.0000000000
     31363      2349  TIP3      H2             10.7581559234        9.6175078225       34.8939493366  TIP3      2149            0.0000000000
     31364      2350  TIP3      OH2            -0.0260723871        6.3599078925       37.4631260584  TIP3      2150            0.0000000000
     31365      2350  TIP3      H1              0.3667252281        5.4723761807       37.3903790719  TIP3      2150            0.0000000000
     31366      2350  TIP3      H2             -0.2751830394        6.3021654201       38.4122166580  TIP3      2150            0.0000000000
     31367      2351  TIP3      OH2             4.5470116652        7.4540912961       22.4716932460  TIP3      2151            0.0000000000
     31368      2351  TIP3      H1              4.1724060015        6.9194993422       23.1837249565  TIP3      2151            0.0000000000
     31369      2351  TIP3      H2              4.9710748148        6.7907308185       21.8915760732  TIP3      2151            0.0000000000
     31370      2352  TIP3      OH2             3.8855473123        5.2621741337       34.7874801510  TIP3      2152            0.0000000000
     31371      2352  TIP3      H1              3.2896655069        5.9721500660       35.0658119488  TIP3      2152            0.0000000000
     31372      2352  TIP3      H2              4.2743558781        5.6480743518       33.9879125271  TIP3      2152            0.0000000000
     31373      2353  TIP3      OH2             8.9388742554        7.8413209796       38.1556749550  TIP3      2153            0.0000000000
     31374      2353  TIP3      H1              9.8952739830        7.8272877769       38.0267579831  TIP3      2153            0.0000000000
     31375      2353  TIP3      H2              8.7672031735        7.0727996542       38.7200384587  TIP3      2153            0.0000000000
     31376      2354  TIP3      OH2             4.2661928033        2.6619013980       35.8643025580  TIP3      2154            0.0000000000
     31377      2354  TIP3      H1              4.3751817775        1.9450755071       35.2135846791  TIP3      2154            0.0000000000
     31378      2354  TIP3      H2              4.2074264238        3.4721576412       35.3234723278  TIP3      2154            0.0000000000
     31379      2355  TIP3      OH2             4.6743088825        1.0313443200       33.4276448349  TIP3      2155            0.0000000000
     31380      2355  TIP3      H1              5.1828538862        1.4957255689       32.7201145590  TIP3      2155            0.0000000000
     31381      2355  TIP3      H2              3.7810012325        0.9532673907       33.0216942553  TIP3      2155            0.0000000000
     31382      2356  TIP3      OH2             6.2231302574        6.5286045164       33.6748815255  TIP3      2156            0.0000000000
     31383      2356  TIP3      H1              6.9718100822        6.3570532286       33.0947573985  TIP3      2156            0.0000000000
     31384      2356  TIP3      H2              5.8550984841        7.3560425153       33.3264425739  TIP3      2156            0.0000000000
     31385      2357  TIP3      OH2            10.6138825778        4.2718484963       38.6450776369  TIP3      2157            0.0000000000
     31386      2357  TIP3      H1             10.8562918620        3.3420198704       38.5257986921  TIP3      2157            0.0000000000
     31387      2357  TIP3      H2             11.4754485429        4.7206363797       38.6648104167  TIP3      2157            0.0000000000
     31388      2358  TIP3      OH2            11.9518417096        7.0727674046       36.8052045757  TIP3      2158            0.0000000000
     31389      2358  TIP3      H1             11.6986796251        7.7873848476       36.1807434207  TIP3      2158            0.0000000000
     31390      2358  TIP3      H2             12.9084560144        7.0351985650       36.6097280021  TIP3      2158            0.0000000000
     31391      2359  TIP3      OH2             2.7928521006        3.8889377290       37.7692989174  TIP3      2159            0.0000000000
     31392      2359  TIP3      H1              1.9726699950        3.3552682038       37.6719891559  TIP3      2159            0.0000000000
     31393      2359  TIP3      H2              3.3932223441        3.5080879664       37.1135025161  TIP3      2159            0.0000000000
     31394      2360  TIP3      OH2             5.4631282065       -1.5356112802       33.8144317514  TIP3      2160            0.0000000000
     31395      2360  TIP3      H1              5.2877803611       -0.5712826789       33.7280013348  TIP3      2160            0.0000000000
     31396      2360  TIP3      H2              4.7126965578       -1.8958646807       33.3101910706  TIP3      2160            0.0000000000
     31397      2361  TIP3      OH2             6.7442847327        2.7648419452       37.4374157285  TIP3      2161            0.0000000000
     31398      2361  TIP3      H1              6.3955590183        2.6019143508       38.3257772435  TIP3      2161            0.0000000000
     31399      2361  TIP3      H2              5.9644382661        2.6241396961       36.8665940531  TIP3      2161            0.0000000000
     31400      2362  TIP3      OH2             9.4547344798        1.9489891830       36.5513139562  TIP3      2162            0.0000000000
     31401      2362  TIP3      H1              8.4881779140        1.9967802001       36.6319122457  TIP3      2162            0.0000000000
     31402      2362  TIP3      H2              9.7241673169        1.2917842875       37.2212356385  TIP3      2162            0.0000000000
     31403      2363  TIP3      OH2            10.9859634643        0.5624004020       38.4274200177  TIP3      2163            0.0000000000
     31404      2363  TIP3      H1             11.0040662584       -0.4180662133       38.4603574030  TIP3      2163            0.0000000000
     31405      2363  TIP3      H2             10.8175914585        0.8529355973       39.3416835295  TIP3      2163            0.0000000000
     31406      2364  TIP3      OH2             0.8191248934        1.8166050655       37.5171939370  TIP3      2164            0.0000000000
     31407      2364  TIP3      H1              1.0630231580        1.0694241434       36.9565948804  TIP3      2164            0.0000000000
     31408      2364  TIP3      H2              0.7316442861        1.4033789245       38.3988323730  TIP3      2164            0.0000000000
     31409      2365  TIP3      OH2             5.6942941042       -2.1277795899       36.5283312820  TIP3      2165            0.0000000000
     31410      2365  TIP3      H1              6.3523453402       -2.8528967014       36.4839234859  TIP3      2165            0.0000000000
     31411      2365  TIP3      H2              5.5578346276       -2.0030986212       35.5656800267  TIP3      2165            0.0000000000
     31412      2366  TIP3      OH2             6.0257761598       -0.5226264352       38.6576045800  TIP3      2166            0.0000000000
     31413      2366  TIP3      H1              5.8924688966       -1.0421335864       37.8169231121  TIP3      2166            0.0000000000
     31414      2366  TIP3      H2              5.4257407204        0.2357972572       38.4625817670  TIP3      2166            0.0000000000
     31415      2367  TIP3      OH2            -2.1543335027       16.3674476559       26.2773511709  TIP3      2167            0.0000000000
     31416      2367  TIP3      H1             -2.8505233482       15.8684416008       25.7814507618  TIP3      2167            0.0000000000
     31417      2367  TIP3      H2             -1.8735811840       15.6819569879       26.9075195073  TIP3      2167            0.0000000000
     31418      2368  TIP3      OH2            -1.3472048581       14.4696103146       28.1005816622  TIP3      2168            0.0000000000
     31419      2368  TIP3      H1             -1.6878544915       13.5939890983       28.3219531228  TIP3      2168            0.0000000000
     31420      2368  TIP3      H2             -1.1113716536       14.8081373674       28.9805337499  TIP3      2168            0.0000000000
     31421      2369  TIP3      OH2            16.2023603596       15.2790764059       31.0450903024  TIP3      2169            0.0000000000
     31422      2369  TIP3      H1             16.2327683958       15.4390538061       32.0043520503  TIP3      2169            0.0000000000
     31423      2369  TIP3      H2             16.9058329029       15.8624086116       30.7424678896  TIP3      2169            0.0000000000
     31424      2370  TIP3      OH2            15.7723359065       14.8758950699       33.9931123177  TIP3      2170            0.0000000000
     31425      2370  TIP3      H1             15.3037652094       14.1035027325       33.6087285754  TIP3      2170            0.0000000000
     31426      2370  TIP3      H2             16.2601420873       14.4279151616       34.7041962589  TIP3      2170            0.0000000000
     31427      2371  TIP3      OH2            14.2185962484       10.5948675163       38.6663543147  TIP3      2171            0.0000000000
     31428      2371  TIP3      H1             13.3128968113       10.5689329001       39.0285572823  TIP3      2171            0.0000000000
     31429      2371  TIP3      H2             14.5916238992       11.4003681933       39.0738469450  TIP3      2171            0.0000000000
     31430      2372  TIP3      OH2            15.6142399172        8.8452771096       24.0242789168  TIP3      2172            0.0000000000
     31431      2372  TIP3      H1             16.4029434703        9.3329767344       24.3139374890  TIP3      2172            0.0000000000
     31432      2372  TIP3      H2             15.5202686049        8.2018985780       24.7623167548  TIP3      2172            0.0000000000
     31433      2373  TIP3      OH2            15.9399995180        6.9971163798       25.9527559944  TIP3      2173            0.0000000000
     31434      2373  TIP3      H1             15.1611161702        6.5236469822       26.3338535305  TIP3      2173            0.0000000000
     31435      2373  TIP3      H2             16.5033680574        7.1252429701       26.7444830921  TIP3      2173            0.0000000000
     31436      2374  TIP3      OH2            15.6501868090        9.6955059368       30.9663838852  TIP3      2174            0.0000000000
     31437      2374  TIP3      H1             16.4625797529        9.3165644979       30.5868115152  TIP3      2174            0.0000000000
     31438      2374  TIP3      H2             15.7991687869       10.6496413334       30.7961764309  TIP3      2174            0.0000000000
     31439      2375  TIP3      OH2            14.2131137142       12.6028875717       33.2311969755  TIP3      2175            0.0000000000
     31440      2375  TIP3      H1             13.5214538423       12.9436428506       33.8222842769  TIP3      2175            0.0000000000
     31441      2375  TIP3      H2             13.6627505855       12.1992127553       32.5264791079  TIP3      2175            0.0000000000
     31442      2376  TIP3      OH2            13.7407161733        5.4831600569       26.5435216062  TIP3      2176            0.0000000000
     31443      2376  TIP3      H1             13.5554962891        4.5279019487       26.4888306318  TIP3      2176            0.0000000000
     31444      2376  TIP3      H2             13.3721740067        5.6779463609       27.4201638650  TIP3      2176            0.0000000000
     31445      2377  TIP3      OH2            -1.2717996287        7.5335687828       30.6020404145  TIP3      2177            0.0000000000
     31446      2377  TIP3      H1             -1.0961240385        7.4914234204       29.6430850097  TIP3      2177            0.0000000000
     31447      2377  TIP3      H2             -0.3824191047        7.3920595316       30.9754497068  TIP3      2177            0.0000000000
     31448      2378  TIP3      OH2            14.5718341330        7.4366601959       36.2499883091  TIP3      2178            0.0000000000
     31449      2378  TIP3      H1             15.1858687005        6.6821228234       36.3736862409  TIP3      2178            0.0000000000
     31450      2378  TIP3      H2             15.1765296465        8.2111109219       36.2423958252  TIP3      2178            0.0000000000
     31451      2379  TIP3      OH2            16.0786056892        5.3194599393       36.8922771850  TIP3      2179            0.0000000000
     31452      2379  TIP3      H1             15.1949622047        4.9219745053       36.7362843841  TIP3      2179            0.0000000000
     31453      2379  TIP3      H2             16.6485999155        4.5365072842       36.8147969119  TIP3      2179            0.0000000000
     31454      2380  TIP3      OH2            13.4773261445        3.0631251847       25.1541712227  TIP3      2180            0.0000000000
     31455      2380  TIP3      H1             13.6606132524        2.1025929823       25.0986747676  TIP3      2180            0.0000000000
     31456      2380  TIP3      H2             14.1566235977        3.4300254696       24.5883319394  TIP3      2180            0.0000000000
     31457      2381  TIP3      OH2            14.0123019788        3.5983466323       30.4539356257  TIP3      2181            0.0000000000
     31458      2381  TIP3      H1             14.9748320215        3.8276695917       30.4386511389  TIP3      2181            0.0000000000
     31459      2381  TIP3      H2             13.8311918562        3.7407635583       31.3942102877  TIP3      2181            0.0000000000
     31460      2382  TIP3      OH2            14.0915650443        4.3211121996       33.2428383295  TIP3      2182            0.0000000000
     31461      2382  TIP3      H1             13.2046361579        4.6119877172       33.5491884642  TIP3      2182            0.0000000000
     31462      2382  TIP3      H2             14.5231298219        5.1776178714       33.0101922543  TIP3      2182            0.0000000000
     31463      2383  TIP3      OH2            -1.6664718053        2.8484974794       36.7431778532  TIP3      2183            0.0000000000
     31464      2383  TIP3      H1             -0.7295454360        2.6721860180       36.9666325885  TIP3      2183            0.0000000000
     31465      2383  TIP3      H2             -2.1131709700        2.0394695446       37.0666253144  TIP3      2183            0.0000000000
     31466      2384  TIP3      OH2            16.3632603128       -1.6164847566       38.5683149465  TIP3      2184            0.0000000000
     31467      2384  TIP3      H1             16.7052062219       -2.2823639056       37.9433373342  TIP3      2184            0.0000000000
     31468      2384  TIP3      H2             16.4629140661       -0.8012714214       38.0364922302  TIP3      2184            0.0000000000
     31469      2385  TIP3      OH2            14.0795591554        0.3254020865       25.0350914796  TIP3      2185            0.0000000000
     31470      2385  TIP3      H1             14.2323093771       -0.0835291312       25.9026372552  TIP3      2185            0.0000000000
     31471      2385  TIP3      H2             13.4329583989       -0.2741538781       24.5986580185  TIP3      2185            0.0000000000
     31472      2386  TIP3      OH2            -0.4510562056        1.1554343585       29.5995463018  TIP3      2186            0.0000000000
     31473      2386  TIP3      H1             -0.0127946659        0.3215691240       29.8751303387  TIP3      2186            0.0000000000
     31474      2386  TIP3      H2              0.0905638751        1.8309635308       30.0263966828  TIP3      2186            0.0000000000
     31475      2387  TIP3      OH2            -2.1665698856        4.1622071584       30.6350373915  TIP3      2187            0.0000000000
     31476      2387  TIP3      H1             -1.6132465922        3.8932893273       29.8895138959  TIP3      2187            0.0000000000
     31477      2387  TIP3      H2             -1.7178576861        4.9639290725       30.9425499572  TIP3      2187            0.0000000000
     31478      2388  TIP3      OH2            15.8849569583        0.4838093047       36.9254493774  TIP3      2188            0.0000000000
     31479      2388  TIP3      H1             14.9496256943        0.7571830667       36.8632545672  TIP3      2188            0.0000000000
     31480      2388  TIP3      H2             15.9173948063       -0.0682696645       36.1298721491  TIP3      2188            0.0000000000
     31481      2389  TIP3      OH2            15.9533697624        0.3409970395       21.6702024936  TIP3      2189            0.0000000000
     31482      2389  TIP3      H1             16.2497540946       -0.3222984464       21.0348063148  TIP3      2189            0.0000000000
     31483      2389  TIP3      H2             16.5892755342        1.0526129754       21.6269241896  TIP3      2189            0.0000000000
     31484      2390  TIP3      OH2            -1.8330623453        0.4120019200       24.7042795235  TIP3      2190            0.0000000000
     31485      2390  TIP3      H1             -2.7709951898        0.6096463645       24.5821203394  TIP3      2190            0.0000000000
     31486      2390  TIP3      H2             -1.4145537312        0.8864395768       23.9661736637  TIP3      2190            0.0000000000
     31487      2391  TIP3      OH2            12.9179087854       15.3627662662       26.6516189877  TIP3      2191            0.0000000000
     31488      2391  TIP3      H1             13.6189319310       15.0524765155       26.0552025134  TIP3      2191            0.0000000000
     31489      2391  TIP3      H2             13.4303634416       15.8568055804       27.3087154796  TIP3      2191            0.0000000000
     31490      2392  TIP3      OH2            -1.8654730983       -0.9399018509       33.0155670208  TIP3      2192            0.0000000000
     31491      2392  TIP3      H1             -2.5318325986       -1.1283089673       33.6997465515  TIP3      2192            0.0000000000
     31492      2392  TIP3      H2             -2.3226346792       -0.2617622810       32.4785482423  TIP3      2192            0.0000000000
     31493      2393  TIP3      OH2             0.3152378410       12.1651350205       37.1968262302  TIP3      2193            0.0000000000
     31494      2393  TIP3      H1             -0.4460819928       12.6086014890       36.7705342547  TIP3      2193            0.0000000000
     31495      2393  TIP3      H2              0.1346599946       12.2860447644       38.1378230668  TIP3      2193            0.0000000000
     31496      2394  TIP3      OH2             3.2629109113       13.2626643078       33.4779074394  TIP3      2194            0.0000000000
     31497      2394  TIP3      H1              2.9403336326       14.1295711097       33.1929560366  TIP3      2194            0.0000000000
     31498      2394  TIP3      H2              4.1897582214       13.3481941722       33.1651981163  TIP3      2194            0.0000000000
     31499      2395  TIP3      OH2             7.5949372731       14.6972920563       36.3613854971  TIP3      2195            0.0000000000
     31500      2395  TIP3      H1              7.7323590217       14.3410904864       37.2701296612  TIP3      2195            0.0000000000
     31501      2395  TIP3      H2              8.4986251534       14.9976742628       36.1211951547  TIP3      2195            0.0000000000
     31502      2396  TIP3      OH2             9.8797498736       15.9627203827       35.6757245716  TIP3      2196            0.0000000000
     31503      2396  TIP3      H1             10.6136064207       15.3776319269       35.4362146574  TIP3      2196            0.0000000000
     31504      2396  TIP3      H2             10.2568972044       16.4009760139       36.4682295843  TIP3      2196            0.0000000000
     31505      2397  TIP3      OH2            14.9074363142       -1.4248776890       34.7794443785  TIP3      2197            0.0000000000
     31506      2397  TIP3      H1             14.0749782638       -1.1276529767       34.3725805033  TIP3      2197            0.0000000000
     31507      2397  TIP3      H2             15.0700815094       -2.2482182245       34.2635238895  TIP3      2197            0.0000000000
     31508      2398  TIP3      OH2             0.6997755527       16.5065540508       33.4496229753  TIP3      2198            0.0000000000
     31509      2398  TIP3      H1             -0.0334665607       17.0077252731       33.0564554892  TIP3      2198            0.0000000000
     31510      2398  TIP3      H2              0.3913010765       16.3162051233       34.3473045105  TIP3      2198            0.0000000000
     31511      2399  TIP3      OH2             3.1666778596       16.0862474149       32.5245919766  TIP3      2199            0.0000000000
     31512      2399  TIP3      H1              2.2780240479       16.2602087024       32.9131082863  TIP3      2199            0.0000000000
     31513      2399  TIP3      H2              3.1181318965       16.6739058963       31.7493846802  TIP3      2199            0.0000000000
     31514      2400  TIP3      OH2             7.8750102933       15.9997090564       31.6926167076  TIP3      2200            0.0000000000
     31515      2400  TIP3      H1              7.4121291065       16.5553938651       31.0495549577  TIP3      2200            0.0000000000
     31516      2400  TIP3      H2              8.0049043314       16.6278048456       32.4327809019  TIP3      2200            0.0000000000
     31517      2401  TIP3      OH2            10.1595089020       14.8031750695       32.7297752377  TIP3      2201            0.0000000000
     31518      2401  TIP3      H1              9.3085079645       15.0833620882       32.3553131872  TIP3      2201            0.0000000000
     31519      2401  TIP3      H2             10.6489049297       15.6389885329       32.6352998345  TIP3      2201            0.0000000000
     31520      2402  TIP3      OH2            12.7376193190       16.3695014076       32.9439668183  TIP3      2202            0.0000000000
     31521      2402  TIP3      H1             12.6927081750       17.3323449697       32.7189840977  TIP3      2202            0.0000000000
     31522      2402  TIP3      H2             12.9607230156       15.9995315677       32.0674317791  TIP3      2202            0.0000000000
     31523      2403  TIP3      OH2             0.1601004304       15.1547748236       30.3938961424  TIP3      2203            0.0000000000
     31524      2403  TIP3      H1              0.0776726269       14.7008388094       31.2584214849  TIP3      2203            0.0000000000
     31525      2403  TIP3      H2              0.9754827598       14.7751789093       30.0082663224  TIP3      2203            0.0000000000
     31526      2404  TIP3      OH2             2.2349504157       13.8679226246       29.0492513087  TIP3      2204            0.0000000000
     31527      2404  TIP3      H1              2.0693481693       12.9336275973       29.2716915219  TIP3      2204            0.0000000000
     31528      2404  TIP3      H2              3.0897721340       14.0209593161       29.5030838051  TIP3      2204            0.0000000000
     31529      2405  TIP3      OH2             4.8421788078       14.3618841921       29.9313360090  TIP3      2205            0.0000000000
     31530      2405  TIP3      H1              5.0036891772       13.4398017886       29.6643338605  TIP3      2205            0.0000000000
     31531      2405  TIP3      H2              4.8838280362       14.2965026776       30.8965460924  TIP3      2205            0.0000000000
     31532      2406  TIP3      OH2             8.2827956507       -0.0031597067       29.0749154202  TIP3      2206            0.0000000000
     31533      2406  TIP3      H1              7.6120577118       -0.6509051762       29.3493613359  TIP3      2206            0.0000000000
     31534      2406  TIP3      H2              8.8369621555       -0.5123668760       28.4708205736  TIP3      2206            0.0000000000
     31535      2407  TIP3      OH2            13.4389530083       -1.9627204252       29.1195455586  TIP3      2207            0.0000000000
     31536      2407  TIP3      H1             14.0318824969       -1.3485137637       28.6228394018  TIP3      2207            0.0000000000
     31537      2407  TIP3      H2             12.5532858452       -1.6019419867       28.9040186843  TIP3      2207            0.0000000000
     31538      2408  TIP3      OH2            15.1096677156       -0.7233366145       27.4396508020  TIP3      2208            0.0000000000
     31539      2408  TIP3      H1             15.7759526952       -1.2506713856       26.9537651799  TIP3      2208            0.0000000000
     31540      2408  TIP3      H2             15.5731305322        0.1496291744       27.5127150107  TIP3      2208            0.0000000000
     31541      2409  TIP3      OH2             0.6661404790       -1.3713843870       26.9263515256  TIP3      2209            0.0000000000
     31542      2409  TIP3      H1             -0.1211609786       -1.5579238726       26.3804594249  TIP3      2209            0.0000000000
     31543      2409  TIP3      H2              1.1234574900       -2.2328956246       26.8476085980  TIP3      2209            0.0000000000
     31544      2410  TIP3      OH2            -0.6036944944       -1.6081231855       22.6258588382  TIP3      2210            0.0000000000
     31545      2410  TIP3      H1             -0.0988296342       -0.9693446838       22.0949150303  TIP3      2210            0.0000000000
     31546      2410  TIP3      H2             -1.1437035653       -1.0342193491       23.1897065736  TIP3      2210            0.0000000000
     31547      2411  TIP3      OH2             5.1255690325       -1.4301718463       26.7136403393  TIP3      2211            0.0000000000
     31548      2411  TIP3      H1              6.0402092823       -1.1114938399       26.6181994795  TIP3      2211            0.0000000000
     31549      2411  TIP3      H2              5.1081658791       -1.6714688266       27.6390448653  TIP3      2211            0.0000000000
     31550      2412  TIP3      OH2            10.8641887065       -1.4486895320       28.3326861897  TIP3      2212            0.0000000000
     31551      2412  TIP3      H1             10.7960971216       -1.2986103725       27.3747192534  TIP3      2212            0.0000000000
     31552      2412  TIP3      H2             10.4570804626       -2.3417357830       28.4526802677  TIP3      2212            0.0000000000
     31553      2413  TIP3      OH2            12.1071000946       -1.3898644697       24.0770088799  TIP3      2213            0.0000000000
     31554      2413  TIP3      H1             11.3836529975       -0.7875173589       23.7923014474  TIP3      2213            0.0000000000
     31555      2413  TIP3      H2             11.6285582376       -2.2355371931       24.1636233094  TIP3      2213            0.0000000000
     31556      2414  TIP3      OH2            -0.6388653197       14.3667156082       23.6150013072  TIP3      2214            0.0000000000
     31557      2414  TIP3      H1             -1.3335031998       14.3164247888       22.9477450431  TIP3      2214            0.0000000000
     31558      2414  TIP3      H2             -0.6424629241       15.3154329977       23.8101503404  TIP3      2214            0.0000000000
     31559      2415  TIP3      OH2             1.2967549637        0.2663164423       21.1736588991  TIP3      2215            0.0000000000
     31560      2415  TIP3      H1              1.8385347391       -0.2998765610       20.6230830150  TIP3      2215            0.0000000000
     31561      2415  TIP3      H2              1.9535360564        0.6349292393       21.7883111894  TIP3      2215            0.0000000000
     31562      2416  TIP3      OH2             6.2049727322        0.6026091046       23.6083323566  TIP3      2216            0.0000000000
     31563      2416  TIP3      H1              6.5926506766        0.0147562191       24.2707794653  TIP3      2216            0.0000000000
     31564      2416  TIP3      H2              6.3821456121        1.4604954323       24.0307559074  TIP3      2216            0.0000000000
     31565      2417  TIP3      OH2             8.2744964663       15.5020388740       22.0068540418  TIP3      2217            0.0000000000
     31566      2417  TIP3      H1              9.0857514348       15.9338739233       21.7367781720  TIP3      2217            0.0000000000
     31567      2417  TIP3      H2              7.8846393425       15.2329182867       21.1456514579  TIP3      2217            0.0000000000
     31568      2418  TIP3      OH2            14.8581684083       15.1782835908       24.7258920482  TIP3      2218            0.0000000000
     31569      2418  TIP3      H1             14.7520147900       14.3725378901       24.1696218047  TIP3      2218            0.0000000000
     31570      2418  TIP3      H2             14.8746317567       15.8849175513       24.0472140047  TIP3      2218            0.0000000000
     31571      2419  TIP3      OH2             0.5442591850       -0.8268659956       36.3814303565  TIP3      2219            0.0000000000
     31572      2419  TIP3      H1              0.1544831282       -1.6350413978       36.7663002648  TIP3      2219            0.0000000000
     31573      2419  TIP3      H2              1.4582000564       -0.8717544134       36.7474059384  TIP3      2219            0.0000000000
     31574      2420  TIP3      OH2             2.5745656000       -1.4437236461       38.0394739336  TIP3      2220            0.0000000000
     31575      2420  TIP3      H1              3.4225040997       -1.8133967673       37.7461157238  TIP3      2220            0.0000000000
     31576      2420  TIP3      H2              2.1592986565       -2.2564577250       38.3944789489  TIP3      2220            0.0000000000
     31577      2421  TIP3      OH2            10.9414596228       -2.1469196805       38.1674324933  TIP3      2221            0.0000000000
     31578      2421  TIP3      H1             11.0573726419       -2.6378840882       39.0036605173  TIP3      2221            0.0000000000
     31579      2421  TIP3      H2             11.8485108241       -2.1792349761       37.8026929301  TIP3      2221            0.0000000000
     31580      2422  TIP3      OH2            14.1606983344       13.8901750184       36.7885046873  TIP3      2222            0.0000000000
     31581      2422  TIP3      H1             13.3566901964       13.7543006638       36.2413874725  TIP3      2222            0.0000000000
     31582      2422  TIP3      H2             14.0443063327       14.8369204064       37.0062331294  TIP3      2222            0.0000000000
     31583      2423  TIP3      OH2            28.5980354680        7.7665724951       26.7860010502  TIP3      2223            0.0000000000
     31584      2423  TIP3      H1             28.5930286111        8.7446802119       26.7265795853  TIP3      2223            0.0000000000
     31585      2423  TIP3      H2             27.8892011137        7.5395910114       26.1623416123  TIP3      2223            0.0000000000
     31586      2424  TIP3      OH2            27.4776465476        7.0251369062       30.2696542207  TIP3      2224            0.0000000000
     31587      2424  TIP3      H1             27.4526492259        6.3750358727       30.9837617202  TIP3      2224            0.0000000000
     31588      2424  TIP3      H2             27.1181362281        6.5192234825       29.5223743894  TIP3      2224            0.0000000000
     31589      2425  TIP3      OH2            19.7690243767        6.7217847297       31.8758749833  TIP3      2225            0.0000000000
     31590      2425  TIP3      H1             19.9130395243        5.9885794824       32.5063092592  TIP3      2225            0.0000000000
     31591      2425  TIP3      H2             20.5779057622        7.2372818562       32.0137343107  TIP3      2225            0.0000000000
     31592      2426  TIP3      OH2            31.1421457947        9.9645645834       28.5644218343  TIP3      2226            0.0000000000
     31593      2426  TIP3      H1             30.7319542738        9.2495554371       29.0548287488  TIP3      2226            0.0000000000
     31594      2426  TIP3      H2             31.1685310131       10.6769998474       29.2289403310  TIP3      2226            0.0000000000
     31595      2427  TIP3      OH2            20.7371355283       11.1383013722       30.3171706539  TIP3      2227            0.0000000000
     31596      2427  TIP3      H1             20.4388382756       10.2590625575       30.0084601887  TIP3      2227            0.0000000000
     31597      2427  TIP3      H2             21.6940643751       10.9657405667       30.3682269910  TIP3      2227            0.0000000000
     31598      2428  TIP3      OH2            17.4301034121        4.7162623630       25.7274686457  TIP3      2228            0.0000000000
     31599      2428  TIP3      H1             16.9322831556        5.5542273839       25.8103872336  TIP3      2228            0.0000000000
     31600      2428  TIP3      H2             16.8118848038        4.1467409612       25.2629445145  TIP3      2228            0.0000000000
     31601      2429  TIP3      OH2            18.0756087002        6.9289912974       27.9245854566  TIP3      2229            0.0000000000
     31602      2429  TIP3      H1             18.3610629270        6.1187571107       28.3881312276  TIP3      2229            0.0000000000
     31603      2429  TIP3      H2             18.8201481662        7.0476914137       27.3205460190  TIP3      2229            0.0000000000
     31604      2430  TIP3      OH2            28.2763404571       15.1366168141       28.7906330602  TIP3      2230            0.0000000000
     31605      2430  TIP3      H1             28.9168941987       14.4401433432       28.5064212534  TIP3      2230            0.0000000000
     31606      2430  TIP3      H2             28.0490189758       14.7934056983       29.6578109186  TIP3      2230            0.0000000000
     31607      2431  TIP3      OH2            25.8353557723        9.4172062578       30.7449857258  TIP3      2231            0.0000000000
     31608      2431  TIP3      H1             26.1735539198        8.7945078153       30.0836451567  TIP3      2231            0.0000000000
     31609      2431  TIP3      H2             26.6468870430        9.5783178646       31.2580677501  TIP3      2231            0.0000000000
     31610      2432  TIP3      OH2            34.4743590316        1.0740090458       31.4679793984  TIP3      2232            0.0000000000
     31611      2432  TIP3      H1             34.5977753963        1.6781469282       32.2297447458  TIP3      2232            0.0000000000
     31612      2432  TIP3      H2             35.0226622102        1.5184398861       30.8024098856  TIP3      2232            0.0000000000
     31613      2433  TIP3      OH2            29.0044548322        3.8899851661       31.0574050092  TIP3      2233            0.0000000000
     31614      2433  TIP3      H1             29.1726415503        2.9311694748       31.0624076788  TIP3      2233            0.0000000000
     31615      2433  TIP3      H2             28.8982177797        4.0303311552       30.0965887815  TIP3      2233            0.0000000000
     31616      2434  TIP3      OH2            22.2535705918        1.8734191974       28.1867740259  TIP3      2234            0.0000000000
     31617      2434  TIP3      H1             22.1775121066        2.8241064072       27.9352671674  TIP3      2234            0.0000000000
     31618      2434  TIP3      H2             21.6661755562        1.4459838464       27.5521883529  TIP3      2234            0.0000000000
     31619      2435  TIP3      OH2            29.8481643785        2.0555461205       26.6418062417  TIP3      2235            0.0000000000
     31620      2435  TIP3      H1             30.5026418108        1.7441805174       27.3102999230  TIP3      2235            0.0000000000
     31621      2435  TIP3      H2             30.4057693442        2.6380691180       26.1037458674  TIP3      2235            0.0000000000
     31622      2436  TIP3      OH2            18.4055836795        4.2351521707       28.9472372039  TIP3      2236            0.0000000000
     31623      2436  TIP3      H1             19.2450940126        4.0190632898       29.4180568972  TIP3      2236            0.0000000000
     31624      2436  TIP3      H2             18.8195489829        4.1403326520       28.0770742794  TIP3      2236            0.0000000000
     31625      2437  TIP3      OH2            23.9870199301        5.9660534916       28.2646307200  TIP3      2237            0.0000000000
     31626      2437  TIP3      H1             24.5606601709        5.3471021325       28.7381879069  TIP3      2237            0.0000000000
     31627      2437  TIP3      H2             23.3362648843        5.3188814137       27.8952286501  TIP3      2237            0.0000000000
     31628      2438  TIP3      OH2            34.8998560219        2.4835773806       33.7424254431  TIP3      2238            0.0000000000
     31629      2438  TIP3      H1             34.2818879376        3.2380862025       33.6164961499  TIP3      2238            0.0000000000
     31630      2438  TIP3      H2             34.9186121213        2.4210837587       34.7068814609  TIP3      2238            0.0000000000
     31631      2439  TIP3      OH2            21.0296666103        0.7789023603       32.4315186992  TIP3      2239            0.0000000000
     31632      2439  TIP3      H1             20.8114600961        1.3495496934       31.6467056655  TIP3      2239            0.0000000000
     31633      2439  TIP3      H2             20.3331261499        1.1046781838       33.0407450938  TIP3      2239            0.0000000000
     31634      2440  TIP3      OH2            28.2994291852       10.3566099222       25.8559546426  TIP3      2240            0.0000000000
     31635      2440  TIP3      H1             28.0579078619       10.1039717331       24.9458618004  TIP3      2240            0.0000000000
     31636      2440  TIP3      H2             28.0143633796       11.2954114077       25.9079255494  TIP3      2240            0.0000000000
     31637      2441  TIP3      OH2            23.5736346797        8.5600700734       32.5960877856  TIP3      2241            0.0000000000
     31638      2441  TIP3      H1             22.8376124228        9.1816560802       32.7735793172  TIP3      2241            0.0000000000
     31639      2441  TIP3      H2             24.2584542945        9.1478196934       32.2555038681  TIP3      2241            0.0000000000
     31640      2442  TIP3      OH2            31.6583750338        1.4160097598       28.6412064724  TIP3      2242            0.0000000000
     31641      2442  TIP3      H1             31.4450470441        0.6389154330       29.1650693253  TIP3      2242            0.0000000000
     31642      2442  TIP3      H2             32.3375775428        1.8410611917       29.1923937796  TIP3      2242            0.0000000000
     31643      2443  TIP3      OH2            20.6350558922        2.4095958601       30.5207388276  TIP3      2243            0.0000000000
     31644      2443  TIP3      H1             21.0424206284        3.2952705651       30.6768116845  TIP3      2243            0.0000000000
     31645      2443  TIP3      H2             21.0495547953        2.2889283997       29.6416977700  TIP3      2243            0.0000000000
     31646      2444  TIP3      OH2            21.9877646038       10.5317229919       33.3741355664  TIP3      2244            0.0000000000
     31647      2444  TIP3      H1             21.9377566439       11.4420649350       33.0343805427  TIP3      2244            0.0000000000
     31648      2444  TIP3      H2             21.1045845893       10.4475584412       33.8138456410  TIP3      2244            0.0000000000
     31649      2445  TIP3      OH2            18.0390933559       10.1357212513       24.1588977558  TIP3      2245            0.0000000000
     31650      2445  TIP3      H1             17.8336227200       10.5029919435       23.2846018863  TIP3      2245            0.0000000000
     31651      2445  TIP3      H2             18.1418325751       10.9565716706       24.6811456982  TIP3      2245            0.0000000000
     31652      2446  TIP3      OH2            31.6737658202       11.8097133079       30.9225290282  TIP3      2246            0.0000000000
     31653      2446  TIP3      H1             30.7056540026       11.9234776621       31.0406171661  TIP3      2246            0.0000000000
     31654      2446  TIP3      H2             31.9438093432       12.7245520110       30.7183172199  TIP3      2246            0.0000000000
     31655      2447  TIP3      OH2            31.9883747162        0.0919028573       32.3168502926  TIP3      2247            0.0000000000
     31656      2447  TIP3      H1             31.2676506711        0.7276637934       32.2176848620  TIP3      2247            0.0000000000
     31657      2447  TIP3      H2             32.7048673872        0.5032761569       31.7931580652  TIP3      2247            0.0000000000
     31658      2448  TIP3      OH2            24.9481153733       -1.7848872146       29.7320541726  TIP3      2248            0.0000000000
     31659      2448  TIP3      H1             24.8315456024       -2.7550483816       29.7250334334  TIP3      2248            0.0000000000
     31660      2448  TIP3      H2             24.0956854432       -1.4832389143       30.1073411499  TIP3      2248            0.0000000000
     31661      2449  TIP3      OH2            29.9501137074       13.5873688832       27.5355517967  TIP3      2249            0.0000000000
     31662      2449  TIP3      H1             30.3581200946       12.8690948787       27.0077799251  TIP3      2249            0.0000000000
     31663      2449  TIP3      H2             30.3667169283       14.3761446596       27.1270755999  TIP3      2249            0.0000000000
     31664      2450  TIP3      OH2            31.1437791783       11.5185217119       26.0294091885  TIP3      2250            0.0000000000
     31665      2450  TIP3      H1             30.8565304125       10.8305173068       25.3993484048  TIP3      2250            0.0000000000
     31666      2450  TIP3      H2             31.1725845487       11.0168276304       26.8608346901  TIP3      2250            0.0000000000
     31667      2451  TIP3      OH2            32.7657542253       10.1163968737       34.5222057181  TIP3      2251            0.0000000000
     31668      2451  TIP3      H1             32.9098775693        9.4612932718       33.8046926280  TIP3      2251            0.0000000000
     31669      2451  TIP3      H2             32.9716034383       10.9582073196       34.0795103195  TIP3      2251            0.0000000000
     31670      2452  TIP3      OH2            27.2959532894        7.0495705531       24.2999915523  TIP3      2252            0.0000000000
     31671      2452  TIP3      H1             26.5741048092        7.5799961775       23.9100115436  TIP3      2252            0.0000000000
     31672      2452  TIP3      H2             27.9806617392        7.1017525979       23.6086617637  TIP3      2252            0.0000000000
     31673      2453  TIP3      OH2            34.6410930100        6.4337656651       32.5627035777  TIP3      2253            0.0000000000
     31674      2453  TIP3      H1             33.9858479751        7.1572788058       32.6063876895  TIP3      2253            0.0000000000
     31675      2453  TIP3      H2             35.1440726809        6.6769726859       31.7608472241  TIP3      2253            0.0000000000
     31676      2454  TIP3      OH2            30.7166902094        7.2112231340       25.2106609295  TIP3      2254            0.0000000000
     31677      2454  TIP3      H1             29.9767882883        7.4632556738       25.8112349658  TIP3      2254            0.0000000000
     31678      2454  TIP3      H2             31.1899646110        6.5510374454       25.7457226585  TIP3      2254            0.0000000000
     31679      2455  TIP3      OH2            30.6391222225        5.3774486862       34.3343831683  TIP3      2255            0.0000000000
     31680      2455  TIP3      H1             30.6501405829        6.1930495970       34.8632886096  TIP3      2255            0.0000000000
     31681      2455  TIP3      H2             30.0083544735        5.6717657821       33.6425532714  TIP3      2255            0.0000000000
     31682      2456  TIP3      OH2            22.3338517860        7.8793100682       27.1221068223  TIP3      2256            0.0000000000
     31683      2456  TIP3      H1             22.0046361066        7.4569845168       26.3011882977  TIP3      2256            0.0000000000
     31684      2456  TIP3      H2             22.9241376573        7.1723465453       27.4740092028  TIP3      2256            0.0000000000
     31685      2457  TIP3      OH2            23.6382898788       11.2539939292       29.8031180402  TIP3      2257            0.0000000000
     31686      2457  TIP3      H1             23.6374209311       10.7332567662       28.9906428135  TIP3      2257            0.0000000000
     31687      2457  TIP3      H2             24.4223183009       10.8984403846       30.2593862409  TIP3      2257            0.0000000000
     31688      2458  TIP3      OH2            22.6821117112        6.6804723252       30.8545411683  TIP3      2258            0.0000000000
     31689      2458  TIP3      H1             23.1625942165        6.6967672989       30.0004815515  TIP3      2258            0.0000000000
     31690      2458  TIP3      H2             23.1071545038        7.3423732391       31.4175467259  TIP3      2258            0.0000000000
     31691      2459  TIP3      OH2            29.0712577281       12.1929882093       31.4968825542  TIP3      2259            0.0000000000
     31692      2459  TIP3      H1             28.7835121986       12.8286817305       32.1586928217  TIP3      2259            0.0000000000
     31693      2459  TIP3      H2             28.8086960971       11.3383243024       31.9152950760  TIP3      2259            0.0000000000
     31694      2460  TIP3      OH2            23.6163879374       11.0653061770       35.4827437674  TIP3      2260            0.0000000000
     31695      2460  TIP3      H1             23.1755848998       11.7853179331       35.9722910045  TIP3      2260            0.0000000000
     31696      2460  TIP3      H2             22.9445352065       10.8528629215       34.7899012946  TIP3      2260            0.0000000000
     31697      2461  TIP3      OH2            29.6261224441        6.3521799796       22.8600870982  TIP3      2261            0.0000000000
     31698      2461  TIP3      H1             30.1033835987        6.6039741034       23.6844191845  TIP3      2261            0.0000000000
     31699      2461  TIP3      H2             29.9965594281        6.9628234620       22.1862629817  TIP3      2261            0.0000000000
     31700      2462  TIP3      OH2            20.5463445205        7.2072548668       34.6407542947  TIP3      2262            0.0000000000
     31701      2462  TIP3      H1             20.5996943530        7.8809753806       35.3415816271  TIP3      2262            0.0000000000
     31702      2462  TIP3      H2             19.6052084311        7.2976032661       34.4222567850  TIP3      2262            0.0000000000
     31703      2463  TIP3      OH2            27.3049005048       13.1468905099       26.3345157707  TIP3      2263            0.0000000000
     31704      2463  TIP3      H1             27.7361177846       13.4411761850       27.1460716761  TIP3      2263            0.0000000000
     31705      2463  TIP3      H2             26.7341470001       13.8902698477       26.1262036039  TIP3      2263            0.0000000000
     31706      2464  TIP3      OH2            21.8722132113       13.1002336577       36.2527646178  TIP3      2264            0.0000000000
     31707      2464  TIP3      H1             21.8181610647       12.9911407172       35.2848538604  TIP3      2264            0.0000000000
     31708      2464  TIP3      H2             20.9370408446       12.9532393819       36.5017729331  TIP3      2264            0.0000000000
     31709      2465  TIP3      OH2            33.3383806562       -1.8385845543       22.7812630916  TIP3      2265            0.0000000000
     31710      2465  TIP3      H1             32.3822645392       -1.7593479799       23.0200174012  TIP3      2265            0.0000000000
     31711      2465  TIP3      H2             33.4984827394       -1.0118515741       22.3322742319  TIP3      2265            0.0000000000
     31712      2466  TIP3      OH2            21.3131028854        6.8876558830       24.6332606790  TIP3      2266            0.0000000000
     31713      2466  TIP3      H1             20.9769071587        7.7155507266       24.2738777021  TIP3      2266            0.0000000000
     31714      2466  TIP3      H2             20.6114942009        6.2319595092       24.5889630658  TIP3      2266            0.0000000000
     31715      2467  TIP3      OH2            34.4473782333       12.5073359092       21.2894849239  TIP3      2267            0.0000000000
     31716      2467  TIP3      H1             34.5471498904       13.4558090785       21.2067588507  TIP3      2267            0.0000000000
     31717      2467  TIP3      H2             35.3028470257       12.1682724986       21.0090405329  TIP3      2267            0.0000000000
     31718      2468  TIP3      OH2            17.3698600683        9.3262016643       33.6467619049  TIP3      2268            0.0000000000
     31719      2468  TIP3      H1             16.9366600783        9.2458847370       32.7767733966  TIP3      2268            0.0000000000
     31720      2468  TIP3      H2             17.4639818982        8.3787393751       33.8550322318  TIP3      2268            0.0000000000
     31721      2469  TIP3      OH2            17.1402434591       12.0572845048       30.4186635497  TIP3      2269            0.0000000000
     31722      2469  TIP3      H1             18.0988956309       11.9444611179       30.3944218251  TIP3      2269            0.0000000000
     31723      2469  TIP3      H2             17.0583760849       12.8786547531       30.9180034636  TIP3      2269            0.0000000000
     31724      2470  TIP3      OH2            35.3968569616       12.7772088223       36.1109590844  TIP3      2270            0.0000000000
     31725      2470  TIP3      H1             35.2762028334       11.8163631121       36.0710205410  TIP3      2270            0.0000000000
     31726      2470  TIP3      H2             34.5261801591       13.0198647556       36.4922452299  TIP3      2270            0.0000000000
     31727      2471  TIP3      OH2            26.3349067785       12.3059122937       34.9604068766  TIP3      2271            0.0000000000
     31728      2471  TIP3      H1             26.3940066594       13.1400831525       35.4581899693  TIP3      2271            0.0000000000
     31729      2471  TIP3      H2             25.4651504191       11.9361980348       35.2104142902  TIP3      2271            0.0000000000
     31730      2472  TIP3      OH2            26.7593318189       16.0419158465       24.7421643642  TIP3      2272            0.0000000000
     31731      2472  TIP3      H1             26.7172414924       16.0372616593       23.7998016652  TIP3      2272            0.0000000000
     31732      2472  TIP3      H2             26.8168946047       16.9989225593       24.9754715067  TIP3      2272            0.0000000000
     31733      2473  TIP3      OH2            20.4243446518       14.9253153790       26.5949472707  TIP3      2273            0.0000000000
     31734      2473  TIP3      H1             20.5635922853       14.5150244024       27.4736352626  TIP3      2273            0.0000000000
     31735      2473  TIP3      H2             19.5749454426       14.5213663152       26.3540780533  TIP3      2273            0.0000000000
     31736      2474  TIP3      OH2            29.6423747929       15.1325992146       21.7464648484  TIP3      2274            0.0000000000
     31737      2474  TIP3      H1             30.2555440729       14.4850632087       21.3180715259  TIP3      2274            0.0000000000
     31738      2474  TIP3      H2             29.8652883715       14.9683907039       22.6834356951  TIP3      2274            0.0000000000
     31739      2475  TIP3      OH2            29.5182461503       15.2219546059       24.5364099980  TIP3      2275            0.0000000000
     31740      2475  TIP3      H1             28.5694366414       15.2717572701       24.7440342663  TIP3      2275            0.0000000000
     31741      2475  TIP3      H2             29.7816158827       14.4662054489       25.0839539688  TIP3      2275            0.0000000000
     31742      2476  TIP3      OH2            32.5326936137        4.2328428006       36.5708278241  TIP3      2276            0.0000000000
     31743      2476  TIP3      H1             32.0509788334        4.6832438285       35.8579183330  TIP3      2276            0.0000000000
     31744      2476  TIP3      H2             32.5088778239        3.3127900161       36.2678850647  TIP3      2276            0.0000000000
     31745      2477  TIP3      OH2            19.6652922142       10.6445300074       34.5744155830  TIP3      2277            0.0000000000
     31746      2477  TIP3      H1             19.8886300306       10.2787555225       35.4585414539  TIP3      2277            0.0000000000
     31747      2477  TIP3      H2             18.7971469323       10.2436971935       34.3652227146  TIP3      2277            0.0000000000
     31748      2478  TIP3      OH2            22.3369694367       -0.9143881600       30.5435975903  TIP3      2278            0.0000000000
     31749      2478  TIP3      H1             21.4387857376       -0.9762854261       30.1619360089  TIP3      2278            0.0000000000
     31750      2478  TIP3      H2             22.2506287878       -0.0613612480       31.0048247296  TIP3      2278            0.0000000000
     31751      2479  TIP3      OH2            26.9904815386       -1.2214227259       33.8859130294  TIP3      2279            0.0000000000
     31752      2479  TIP3      H1             27.3832003044       -1.6413090525       34.6740726126  TIP3      2279            0.0000000000
     31753      2479  TIP3      H2             26.0186737052       -1.3333338426       34.0349530632  TIP3      2279            0.0000000000
     31754      2480  TIP3      OH2            30.2792648742        2.6303239292       34.7912226144  TIP3      2280            0.0000000000
     31755      2480  TIP3      H1             29.7126481038        2.4145443113       35.5710064932  TIP3      2280            0.0000000000
     31756      2480  TIP3      H2             30.0930827326        3.5573108216       34.5618813731  TIP3      2280            0.0000000000
     31757      2481  TIP3      OH2            31.0297016152        7.2685550274       20.6730284032  TIP3      2281            0.0000000000
     31758      2481  TIP3      H1             30.9081826416        7.4319446099       19.7320232006  TIP3      2281            0.0000000000
     31759      2481  TIP3      H2             31.7240281292        7.9285518667       20.8582584165  TIP3      2281            0.0000000000
     31760      2482  TIP3      OH2            26.7359525087        1.3126760812       21.3628229992  TIP3      2282            0.0000000000
     31761      2482  TIP3      H1             26.2676549843        1.3013504534       22.1894695109  TIP3      2282            0.0000000000
     31762      2482  TIP3      H2             26.3614223529        0.5573713919       20.8898867414  TIP3      2282            0.0000000000
     31763      2483  TIP3      OH2            22.4985394178        4.1110504537       31.8883333716  TIP3      2283            0.0000000000
     31764      2483  TIP3      H1             21.6696804901        4.0719388893       32.3913203038  TIP3      2283            0.0000000000
     31765      2483  TIP3      H2             22.3582095410        4.9220892234       31.3367921109  TIP3      2283            0.0000000000
     31766      2484  TIP3      OH2            22.4753864013        4.2417282890       26.4449022220  TIP3      2284            0.0000000000
     31767      2484  TIP3      H1             21.5312636225        3.9902248983       26.5451534926  TIP3      2284            0.0000000000
     31768      2484  TIP3      H2             22.7818559574        3.8123849977       25.6541198717  TIP3      2284            0.0000000000
     31769      2485  TIP3      OH2            27.9407490289        4.7216647610       25.4180115999  TIP3      2285            0.0000000000
     31770      2485  TIP3      H1             27.5379190792        5.5335470700       25.0360985635  TIP3      2285            0.0000000000
     31771      2485  TIP3      H2             28.5942515108        4.5364181901       24.7242136515  TIP3      2285            0.0000000000
     31772      2486  TIP3      OH2            26.9824928308        4.9176339550       36.8503556921  TIP3      2286            0.0000000000
     31773      2486  TIP3      H1             26.4582041698        4.1422596226       37.1623105046  TIP3      2286            0.0000000000
     31774      2486  TIP3      H2             27.8205667140        4.7998552133       37.3280232847  TIP3      2286            0.0000000000
     31775      2487  TIP3      OH2            28.9674457777        4.2076123118       28.2562652590  TIP3      2287            0.0000000000
     31776      2487  TIP3      H1             28.6784521945        4.7632565247       27.5125977946  TIP3      2287            0.0000000000
     31777      2487  TIP3      H2             29.0605206568        3.3537819623       27.7958880474  TIP3      2287            0.0000000000
     31778      2488  TIP3      OH2            20.0595706447        4.3450805452       33.4680848152  TIP3      2288            0.0000000000
     31779      2488  TIP3      H1             20.1558487233        4.7452606805       34.3457496132  TIP3      2288            0.0000000000
     31780      2488  TIP3      H2             19.6350063245        3.4966078439       33.6598953263  TIP3      2288            0.0000000000
     31781      2489  TIP3      OH2            16.7085246177        1.3455764683       27.4573607399  TIP3      2289            0.0000000000
     31782      2489  TIP3      H1             17.4063938617        1.4442671918       28.1407330774  TIP3      2289            0.0000000000
     31783      2489  TIP3      H2             17.1942240321        1.1030319127       26.6558023417  TIP3      2289            0.0000000000
     31784      2490  TIP3      OH2            18.0028400759        2.1927392513       22.8195258317  TIP3      2290            0.0000000000
     31785      2490  TIP3      H1             18.5405955862        2.8105615237       22.2799018049  TIP3      2290            0.0000000000
     31786      2490  TIP3      H2             17.3003216510        2.7900307844       23.1530112142  TIP3      2290            0.0000000000
     31787      2491  TIP3      OH2            28.1820864349        5.7829259920       32.8227502509  TIP3      2291            0.0000000000
     31788      2491  TIP3      H1             28.5416071674        5.0948994089       32.2271897160  TIP3      2291            0.0000000000
     31789      2491  TIP3      H2             27.6947919383        5.2588542128       33.4838875895  TIP3      2291            0.0000000000
     31790      2492  TIP3      OH2            24.9813010639        1.6803572812       27.6279937392  TIP3      2292            0.0000000000
     31791      2492  TIP3      H1             24.0471547100        1.7933744294       27.9324977820  TIP3      2292            0.0000000000
     31792      2492  TIP3      H2             25.4414498908        1.6154069543       28.4764988680  TIP3      2292            0.0000000000
     31793      2493  TIP3      OH2            19.7576127638        3.3261585813       26.5184481088  TIP3      2293            0.0000000000
     31794      2493  TIP3      H1             18.8780553447        3.4458329678       26.1210024414  TIP3      2293            0.0000000000
     31795      2493  TIP3      H2             20.0832520931        2.5124545168       26.1182788092  TIP3      2293            0.0000000000
     31796      2494  TIP3      OH2            23.4388530492        3.2792841094       24.0524392807  TIP3      2294            0.0000000000
     31797      2494  TIP3      H1             24.3534203734        3.4761084043       24.3273115112  TIP3      2294            0.0000000000
     31798      2494  TIP3      H2             23.1902604658        4.0390419409       23.5020409950  TIP3      2294            0.0000000000
     31799      2495  TIP3      OH2            29.3665497418        0.9966677233       30.8894253930  TIP3      2295            0.0000000000
     31800      2495  TIP3      H1             28.6846381125        1.0455239841       31.5972600177  TIP3      2295            0.0000000000
     31801      2495  TIP3      H2             28.8568954379        0.7392682537       30.1081250477  TIP3      2295            0.0000000000
     31802      2496  TIP3      OH2            22.0911495942        4.6574135545       21.6826008093  TIP3      2296            0.0000000000
     31803      2496  TIP3      H1             21.5747668355        4.1314809400       21.0576172967  TIP3      2296            0.0000000000
     31804      2496  TIP3      H2             22.9629023468        4.6495364659       21.2530946943  TIP3      2296            0.0000000000
     31805      2497  TIP3      OH2            32.5662173629       16.6407643513       37.2174885451  TIP3      2297            0.0000000000
     31806      2497  TIP3      H1             32.8350611462       17.0195555836       36.3622094885  TIP3      2297            0.0000000000
     31807      2497  TIP3      H2             33.2923816101       16.9561486387       37.7755046702  TIP3      2297            0.0000000000
     31808      2498  TIP3      OH2            20.2516989124        9.1544595968       36.7886294451  TIP3      2298            0.0000000000
     31809      2498  TIP3      H1             20.9737737758        9.3556492492       37.4033842226  TIP3      2298            0.0000000000
     31810      2498  TIP3      H2             19.4778792735        9.1904608723       37.3939648724  TIP3      2298            0.0000000000
     31811      2499  TIP3      OH2            26.2592249979        4.5226539914       29.5669807049  TIP3      2299            0.0000000000
     31812      2499  TIP3      H1             26.8137344244        3.9693487122       29.0110394580  TIP3      2299            0.0000000000
     31813      2499  TIP3      H2             26.0742800096        3.9621946227       30.3295204538  TIP3      2299            0.0000000000
     31814      2500  TIP3      OH2            21.2053931446        0.6355522473       25.9358343681  TIP3      2300            0.0000000000
     31815      2500  TIP3      H1             20.9559296315       -0.2917254754       25.9788378950  TIP3      2300            0.0000000000
     31816      2500  TIP3      H2             22.0457311646        0.6780523954       25.4719501016  TIP3      2300            0.0000000000
     31817      2501  TIP3      OH2            24.8937983498        2.8410320599       31.9643629784  TIP3      2301            0.0000000000
     31818      2501  TIP3      H1             24.0586271627        3.3613527058       32.0209532842  TIP3      2301            0.0000000000
     31819      2501  TIP3      H2             25.4292788455        3.2149397701       32.6862145372  TIP3      2301            0.0000000000
     31820      2502  TIP3      OH2            25.4410293894        9.0810913190       23.6747637933  TIP3      2302            0.0000000000
     31821      2502  TIP3      H1             24.6672232863        8.5949656993       23.3175429565  TIP3      2302            0.0000000000
     31822      2502  TIP3      H2             25.2306661783        9.1944154671       24.6187933113  TIP3      2302            0.0000000000
     31823      2503  TIP3      OH2            32.6699990789        8.2711025169       32.4593491589  TIP3      2303            0.0000000000
     31824      2503  TIP3      H1             33.2231153703        8.7564349417       31.8223438444  TIP3      2303            0.0000000000
     31825      2503  TIP3      H2             31.8059791159        8.3123855603       32.0002010177  TIP3      2303            0.0000000000
     31826      2504  TIP3      OH2            29.3699200896        1.8835543746       21.7981501247  TIP3      2304            0.0000000000
     31827      2504  TIP3      H1             28.3909472519        1.9609566003       21.6573406169  TIP3      2304            0.0000000000
     31828      2504  TIP3      H2             29.5586433095        2.7443002864       22.2264738750  TIP3      2304            0.0000000000
     31829      2505  TIP3      OH2            26.9556451809        9.3214902966       34.8817397911  TIP3      2305            0.0000000000
     31830      2505  TIP3      H1             26.6224649635        8.9025156115       35.6825027597  TIP3      2305            0.0000000000
     31831      2505  TIP3      H2             26.7145291312       10.2469422150       35.0026158579  TIP3      2305            0.0000000000
     31832      2506  TIP3      OH2            30.0842784980        3.7477328157       23.4269575748  TIP3      2306            0.0000000000
     31833      2506  TIP3      H1             30.9215938909        3.6913039058       23.9249566434  TIP3      2306            0.0000000000
     31834      2506  TIP3      H2             30.0785192883        4.6490962357       23.0420865776  TIP3      2306            0.0000000000
     31835      2507  TIP3      OH2            20.5907017909        8.4567165104       29.4693416771  TIP3      2307            0.0000000000
     31836      2507  TIP3      H1             21.2542685734        8.3670392421       28.7560200069  TIP3      2307            0.0000000000
     31837      2507  TIP3      H2             20.6507866995        7.5704560316       29.8803923104  TIP3      2307            0.0000000000
     31838      2508  TIP3      OH2            27.5902171367       10.5113827366       22.7961817921  TIP3      2308            0.0000000000
     31839      2508  TIP3      H1             27.2090533378       11.3694029491       23.0298309316  TIP3      2308            0.0000000000
     31840      2508  TIP3      H2             26.8374078071        9.8922136250       22.8691630232  TIP3      2308            0.0000000000
     31841      2509  TIP3      OH2            17.5736597993        6.8638382846       34.7175326450  TIP3      2309            0.0000000000
     31842      2509  TIP3      H1             17.7420074536        6.4179165994       35.5702317918  TIP3      2309            0.0000000000
     31843      2509  TIP3      H2             16.9523523024        6.2554998913       34.2769079545  TIP3      2309            0.0000000000
     31844      2510  TIP3      OH2            24.5921451161        6.4352879083       36.9016215024  TIP3      2310            0.0000000000
     31845      2510  TIP3      H1             24.2647715563        6.1163891631       36.0436307619  TIP3      2310            0.0000000000
     31846      2510  TIP3      H2             25.5103853124        6.1007309772       36.8929366946  TIP3      2310            0.0000000000
     31847      2511  TIP3      OH2            29.2645726591       11.7495114327       34.8575311778  TIP3      2311            0.0000000000
     31848      2511  TIP3      H1             28.3459703313       11.9270198881       34.6045135660  TIP3      2311            0.0000000000
     31849      2511  TIP3      H2             29.2344682880       12.0488700355       35.7837510297  TIP3      2311            0.0000000000
     31850      2512  TIP3      OH2            34.9359144434        3.9537716049       23.2441027899  TIP3      2312            0.0000000000
     31851      2512  TIP3      H1             34.3791239130        3.6226352604       22.5575018007  TIP3      2312            0.0000000000
     31852      2512  TIP3      H2             35.0324636201        4.9106121248       23.0097486013  TIP3      2312            0.0000000000
     31853      2513  TIP3      OH2            34.9114531705        9.7978009485       36.0533542734  TIP3      2313            0.0000000000
     31854      2513  TIP3      H1             34.0290581612       10.0147452682       35.6712376287  TIP3      2313            0.0000000000
     31855      2513  TIP3      H2             35.4668457601        9.7623743189       35.2427839973  TIP3      2313            0.0000000000
     31856      2514  TIP3      OH2            33.2489887448       12.7285026547       23.6649439212  TIP3      2314            0.0000000000
     31857      2514  TIP3      H1             32.8162116026       11.9238829157       23.9701603792  TIP3      2314            0.0000000000
     31858      2514  TIP3      H2             33.4934931868       12.5459001012       22.7320504530  TIP3      2314            0.0000000000
     31859      2515  TIP3      OH2            30.4459613299        7.5841187638       30.7397178272  TIP3      2315            0.0000000000
     31860      2515  TIP3      H1             29.5013301562        7.3778852283       30.6270374400  TIP3      2315            0.0000000000
     31861      2515  TIP3      H2             30.8701676850        6.8248158128       30.3014553931  TIP3      2315            0.0000000000
     31862      2516  TIP3      OH2            22.9521250909       11.9154098216       26.8460679680  TIP3      2316            0.0000000000
     31863      2516  TIP3      H1             23.4518155438       12.7171912797       26.6387785958  TIP3      2316            0.0000000000
     31864      2516  TIP3      H2             22.0751532605       12.1437442176       26.5074991969  TIP3      2316            0.0000000000
     31865      2517  TIP3      OH2            24.3648979336        9.5757287510       26.3686371040  TIP3      2317            0.0000000000
     31866      2517  TIP3      H1             24.0494237884       10.4956501896       26.4447018791  TIP3      2317            0.0000000000
     31867      2517  TIP3      H2             23.6463964732        9.0736667110       26.8092161602  TIP3      2317            0.0000000000
     31868      2518  TIP3      OH2            24.8202001665       13.7670371585       32.7684770462  TIP3      2318            0.0000000000
     31869      2518  TIP3      H1             25.2812861078       14.5709617984       32.4836138127  TIP3      2318            0.0000000000
     31870      2518  TIP3      H2             25.4383596091       13.4134274528       33.4296246558  TIP3      2318            0.0000000000
     31871      2519  TIP3      OH2            23.0651255993       14.5841547886       25.8693111851  TIP3      2319            0.0000000000
     31872      2519  TIP3      H1             22.0985514486       14.6886587995       26.0379855662  TIP3      2319            0.0000000000
     31873      2519  TIP3      H2             23.4020474274       15.4087185700       26.2687651318  TIP3      2319            0.0000000000
     31874      2520  TIP3      OH2            28.3353564738        9.7572038193       32.3849870451  TIP3      2320            0.0000000000
     31875      2520  TIP3      H1             28.0197370441        9.5670683370       33.2934316079  TIP3      2320            0.0000000000
     31876      2520  TIP3      H2             28.9822755894        9.0525967898       32.2187815075  TIP3      2320            0.0000000000
     31877      2521  TIP3      OH2            31.1652553686       14.3482115662       34.8720872553  TIP3      2321            0.0000000000
     31878      2521  TIP3      H1             30.4712561414       13.8518961320       34.3981635381  TIP3      2321            0.0000000000
     31879      2521  TIP3      H2             31.3478843439       15.0462814021       34.2091775822  TIP3      2321            0.0000000000
     31880      2522  TIP3      OH2            19.2179759541        1.6054009220       34.2699358738  TIP3      2322            0.0000000000
     31881      2522  TIP3      H1             18.3106311170        1.9546325237       34.2537107030  TIP3      2322            0.0000000000
     31882      2522  TIP3      H2             19.1147808429        0.7550832349       34.7297954439  TIP3      2322            0.0000000000
     31883      2523  TIP3      OH2            31.4650032270        9.4779335997       23.7530173387  TIP3      2323            0.0000000000
     31884      2523  TIP3      H1             31.2221108440        8.6769407639       24.2479268820  TIP3      2323            0.0000000000
     31885      2523  TIP3      H2             32.4166644761        9.5178062383       23.8973177141  TIP3      2323            0.0000000000
     31886      2524  TIP3      OH2            18.8317231413       13.3804912086       32.6928216088  TIP3      2324            0.0000000000
     31887      2524  TIP3      H1             19.1406847443       12.4609742650       32.6998439463  TIP3      2324            0.0000000000
     31888      2524  TIP3      H2             19.0978237642       13.6739487372       33.5722235128  TIP3      2324            0.0000000000
     31889      2525  TIP3      OH2            23.5178823873       11.4600536352       22.4548065320  TIP3      2325            0.0000000000
     31890      2525  TIP3      H1             23.8275785833       10.8929274279       23.1793594137  TIP3      2325            0.0000000000
     31891      2525  TIP3      H2             23.6654205062       12.3529020729       22.7954850900  TIP3      2325            0.0000000000
     31892      2526  TIP3      OH2            27.9564099947        1.3720998784       33.2322755917  TIP3      2326            0.0000000000
     31893      2526  TIP3      H1             28.6727620506        1.4323297634       33.8734185376  TIP3      2326            0.0000000000
     31894      2526  TIP3      H2             27.5720215740        0.4964325507       33.4358957280  TIP3      2326            0.0000000000
     31895      2527  TIP3      OH2            28.6802226195        0.9468497326       24.3267511318  TIP3      2327            0.0000000000
     31896      2527  TIP3      H1             28.9128006208        1.4195377433       23.5043976118  TIP3      2327            0.0000000000
     31897      2527  TIP3      H2             29.2672389469        1.3836487716       24.9582812232  TIP3      2327            0.0000000000
     31898      2528  TIP3      OH2            26.3682130466       13.1085098199       23.1048597012  TIP3      2328            0.0000000000
     31899      2528  TIP3      H1             25.5656364358       13.6268681627       23.2683921955  TIP3      2328            0.0000000000
     31900      2528  TIP3      H2             27.0028349580       13.6013606458       22.5781724241  TIP3      2328            0.0000000000
     31901      2529  TIP3      OH2            25.9168403772        2.6731833284       25.1260329937  TIP3      2329            0.0000000000
     31902      2529  TIP3      H1             26.6987322885        3.2677398206       25.1614047512  TIP3      2329            0.0000000000
     31903      2529  TIP3      H2             25.6505282037        2.5940842330       26.0671394606  TIP3      2329            0.0000000000
     31904      2530  TIP3      OH2            26.4765526006        3.7129676545       34.3262277018  TIP3      2330            0.0000000000
     31905      2530  TIP3      H1             26.5563154333        4.2750410858       35.1243195978  TIP3      2330            0.0000000000
     31906      2530  TIP3      H2             27.1448032288        3.0238335900       34.4205517323  TIP3      2330            0.0000000000
     31907      2531  TIP3      OH2            26.7337415682       -0.2336422228       25.9697856577  TIP3      2331            0.0000000000
     31908      2531  TIP3      H1             26.4697224441        0.3874322679       26.6784583524  TIP3      2331            0.0000000000
     31909      2531  TIP3      H2             27.4802041343        0.2968453842       25.5846555134  TIP3      2331            0.0000000000
     31910      2532  TIP3      OH2            23.8447297110       14.2303499258       23.1317506614  TIP3      2332            0.0000000000
     31911      2532  TIP3      H1             23.8090505669       15.0643126979       22.6921696212  TIP3      2332            0.0000000000
     31912      2532  TIP3      H2             23.4736963393       14.4337107071       24.0326957101  TIP3      2332            0.0000000000
     31913      2533  TIP3      OH2            22.4172555085        0.7815972626       22.9171927855  TIP3      2333            0.0000000000
     31914      2533  TIP3      H1             22.3513648362        1.7551470867       23.0633619764  TIP3      2333            0.0000000000
     31915      2533  TIP3      H2             23.3907490708        0.7542885361       22.8832761835  TIP3      2333            0.0000000000
     31916      2534  TIP3      OH2            32.6593427645        1.5814008255       35.1699612782  TIP3      2334            0.0000000000
     31917      2534  TIP3      H1             31.7334685407        1.9031572487       35.0424975699  TIP3      2334            0.0000000000
     31918      2534  TIP3      H2             32.9608800670        1.5723718415       34.2465386181  TIP3      2334            0.0000000000
     31919      2535  TIP3      OH2            31.2819771851        5.3705945948       29.1672363010  TIP3      2335            0.0000000000
     31920      2535  TIP3      H1             30.4533880423        4.9309822210       28.9031866105  TIP3      2335            0.0000000000
     31921      2535  TIP3      H2             31.7541752507        4.6889001654       29.6970250727  TIP3      2335            0.0000000000
     31922      2536  TIP3      OH2            20.6805457267       11.2468652266       21.7953093279  TIP3      2336            0.0000000000
     31923      2536  TIP3      H1             21.2901400661       11.9409446615       22.0949043053  TIP3      2336            0.0000000000
     31924      2536  TIP3      H2             21.2019399239       10.8795388738       21.0642443019  TIP3      2336            0.0000000000
     31925      2537  TIP3      OH2            18.9623416250        3.9597039819       21.0039009597  TIP3      2337            0.0000000000
     31926      2537  TIP3      H1             19.0314671143        4.9102881158       21.0496277327  TIP3      2337            0.0000000000
     31927      2537  TIP3      H2             18.1537577605        3.7347022356       20.5315008268  TIP3      2337            0.0000000000
     31928      2538  TIP3      OH2            32.3323062208       14.6415940991       30.8497527124  TIP3      2338            0.0000000000
     31929      2538  TIP3      H1             32.2492182492       15.3182101040       30.1515294058  TIP3      2338            0.0000000000
     31930      2538  TIP3      H2             33.2975093838       14.6846007935       31.0197129852  TIP3      2338            0.0000000000
     31931      2539  TIP3      OH2            19.8429384071       -1.2684795069       29.6447956657  TIP3      2339            0.0000000000
     31932      2539  TIP3      H1             19.6392219982       -1.1401344483       28.7007011618  TIP3      2339            0.0000000000
     31933      2539  TIP3      H2             19.4158400288       -2.0891181363       29.9608501140  TIP3      2339            0.0000000000
     31934      2540  TIP3      OH2            18.7703244535       12.6822048901       25.8038066314  TIP3      2340            0.0000000000
     31935      2540  TIP3      H1             17.9189379049       13.1357556966       25.7603968096  TIP3      2340            0.0000000000
     31936      2540  TIP3      H2             19.2441606313       13.1460359845       25.0987633960  TIP3      2340            0.0000000000
     31937      2541  TIP3      OH2            17.9799086390       15.3342431895       37.0806058535  TIP3      2341            0.0000000000
     31938      2541  TIP3      H1             18.5890122322       15.1351593348       37.8187285874  TIP3      2341            0.0000000000
     31939      2541  TIP3      H2             17.5905129717       14.4599758556       36.9007871797  TIP3      2341            0.0000000000
     31940      2542  TIP3      OH2            22.7437668053       14.2863028672       38.6658048143  TIP3      2342            0.0000000000
     31941      2542  TIP3      H1             23.3644699549       13.6296072822       39.0061989115  TIP3      2342            0.0000000000
     31942      2542  TIP3      H2             22.6046305967       13.9589044588       37.7488653564  TIP3      2342            0.0000000000
     31943      2543  TIP3      OH2            29.2159393825       12.6421239178       37.4541251791  TIP3      2343            0.0000000000
     31944      2543  TIP3      H1             28.8803056773       11.7491039208       37.6921331552  TIP3      2343            0.0000000000
     31945      2543  TIP3      H2             29.9931641579       12.7232955396       38.0335183338  TIP3      2343            0.0000000000
     31946      2544  TIP3      OH2            31.4505953996       13.6069464558       20.4287866039  TIP3      2344            0.0000000000
     31947      2544  TIP3      H1             31.6234835871       12.7005618695       20.7301816797  TIP3      2344            0.0000000000
     31948      2544  TIP3      H2             32.1000735957       13.7230408780       19.7294527715  TIP3      2344            0.0000000000
     31949      2545  TIP3      OH2            17.8988538544        9.0986663686       38.0806008289  TIP3      2345            0.0000000000
     31950      2545  TIP3      H1             18.0643643794        8.1877992618       37.7795702155  TIP3      2345            0.0000000000
     31951      2545  TIP3      H2             17.1597001450        9.3590754357       37.5062199512  TIP3      2345            0.0000000000
     31952      2546  TIP3      OH2            24.6251786090        9.1084422298       37.4650253627  TIP3      2346            0.0000000000
     31953      2546  TIP3      H1             24.2835061585        9.4122944468       36.6013081905  TIP3      2346            0.0000000000
     31954      2546  TIP3      H2             24.7011152716        8.1302781102       37.3607200737  TIP3      2346            0.0000000000
     31955      2547  TIP3      OH2            30.3092917244        8.9527202581       34.8598202761  TIP3      2347            0.0000000000
     31956      2547  TIP3      H1             31.1003711860        9.5309116650       34.7979315617  TIP3      2347            0.0000000000
     31957      2547  TIP3      H2             29.6120981360        9.6239032148       34.9045736155  TIP3      2347            0.0000000000
     31958      2548  TIP3      OH2            18.8237697857        6.3266867562       37.4609869574  TIP3      2348            0.0000000000
     31959      2548  TIP3      H1             19.2404912850        5.4635177800       37.3708352294  TIP3      2348            0.0000000000
     31960      2548  TIP3      H2             18.5894559311        6.3330202938       38.4030913533  TIP3      2348            0.0000000000
     31961      2549  TIP3      OH2            23.5166677391        7.4222045014       22.5029559252  TIP3      2349            0.0000000000
     31962      2549  TIP3      H1             22.9439265291        6.9600037080       23.1400551674  TIP3      2349            0.0000000000
     31963      2549  TIP3      H2             23.7699868787        6.7318619195       21.8785317327  TIP3      2349            0.0000000000
     31964      2550  TIP3      OH2            22.7328138734        5.2792975984       34.8320394079  TIP3      2350            0.0000000000
     31965      2550  TIP3      H1             22.1239650136        5.9950391847       35.0705868178  TIP3      2350            0.0000000000
     31966      2550  TIP3      H2             23.0953833061        5.6205655969       33.9899608326  TIP3      2350            0.0000000000
     31967      2551  TIP3      OH2            27.7932964056        7.8093015469       38.1386520217  TIP3      2351            0.0000000000
     31968      2551  TIP3      H1             28.7526193351        7.8432447851       38.0381272331  TIP3      2351            0.0000000000
     31969      2551  TIP3      H2             27.6334205866        7.0521628727       38.7249151000  TIP3      2351            0.0000000000
     31970      2552  TIP3      OH2            23.1448788647        2.6520821105       35.8890707533  TIP3      2352            0.0000000000
     31971      2552  TIP3      H1             23.2416647430        1.9432378030       35.2243516697  TIP3      2352            0.0000000000
     31972      2552  TIP3      H2             23.0831641341        3.4576414441       35.3330176533  TIP3      2352            0.0000000000
     31973      2553  TIP3      OH2            23.5323358848        1.0375629832       33.4055619073  TIP3      2353            0.0000000000
     31974      2553  TIP3      H1             24.0343014946        1.5152274320       32.6999274252  TIP3      2353            0.0000000000
     31975      2553  TIP3      H2             22.6307949827        0.9663721152       33.0110892338  TIP3      2353            0.0000000000
     31976      2554  TIP3      OH2            25.0672365116        6.5210798593       33.6717312481  TIP3      2354            0.0000000000
     31977      2554  TIP3      H1             25.8141711102        6.3503857189       33.0901683713  TIP3      2354            0.0000000000
     31978      2554  TIP3      H2             24.6962648348        7.3530900857       33.3329614684  TIP3      2354            0.0000000000
     31979      2555  TIP3      OH2            29.4653674909        4.2735453540       38.6283738761  TIP3      2355            0.0000000000
     31980      2555  TIP3      H1             29.7112629085        3.3440758426       38.5295403894  TIP3      2355            0.0000000000
     31981      2555  TIP3      H2             30.3269963882        4.7205707933       38.6646390962  TIP3      2355            0.0000000000
     31982      2556  TIP3      OH2            30.7970750162        7.0702293644       36.8013147944  TIP3      2356            0.0000000000
     31983      2556  TIP3      H1             30.5495155161        7.7886505734       36.1799938357  TIP3      2356            0.0000000000
     31984      2556  TIP3      H2             31.7567004036        7.0364912565       36.6099068303  TIP3      2356            0.0000000000
     31985      2557  TIP3      OH2            21.5900702889        3.8994610851       37.7971401874  TIP3      2357            0.0000000000
     31986      2557  TIP3      H1             20.8189443636        3.3219288268       37.6257131824  TIP3      2357            0.0000000000
     31987      2557  TIP3      H2             22.2419473021        3.5311826636       37.1727871695  TIP3      2357            0.0000000000
     31988      2558  TIP3      OH2            24.3125943448       -1.5304757980       33.8091895030  TIP3      2358            0.0000000000
     31989      2558  TIP3      H1             24.1347762191       -0.5642341234       33.7195620876  TIP3      2358            0.0000000000
     31990      2558  TIP3      H2             23.5608843844       -1.8830668535       33.3032235019  TIP3      2358            0.0000000000
     31991      2559  TIP3      OH2            25.5875984637        2.7967591010       37.4482472352  TIP3      2359            0.0000000000
     31992      2559  TIP3      H1             25.2727414728        2.5638308187       38.3394570902  TIP3      2359            0.0000000000
     31993      2559  TIP3      H2             24.8074786183        2.5949827941       36.9015879874  TIP3      2359            0.0000000000
     31994      2560  TIP3      OH2            28.3106407566        1.9426037055       36.5360913268  TIP3      2360            0.0000000000
     31995      2560  TIP3      H1             27.3453729642        1.9960338308       36.6432867615  TIP3      2360            0.0000000000
     31996      2560  TIP3      H2             28.5734354604        1.3002342453       37.2234869015  TIP3      2360            0.0000000000
     31997      2561  TIP3      OH2            29.8912628631        0.5597573451       38.4322584983  TIP3      2361            0.0000000000
     31998      2561  TIP3      H1             29.8439034336       -0.4182980187       38.4636460405  TIP3      2361            0.0000000000
     31999      2561  TIP3      H2             29.6437291127        0.8522949406       39.3316364559  TIP3      2361            0.0000000000
     32000      2562  TIP3      OH2            19.6632748447        1.8368838873       37.5482878355  TIP3      2362            0.0000000000
     32001      2562  TIP3      H1             19.9159751993        1.1007831309       36.9637988862  TIP3      2362            0.0000000000
     32002      2562  TIP3      H2             19.5765303319        1.3896375088       38.4133961142  TIP3      2362            0.0000000000
     32003      2563  TIP3      OH2            24.5339817800       -2.1367346199       36.5118148775  TIP3      2363            0.0000000000
     32004      2563  TIP3      H1             25.2166852457       -2.8363970093       36.4858766921  TIP3      2363            0.0000000000
     32005      2563  TIP3      H2             24.4149388231       -1.9953746349       35.5529162630  TIP3      2363            0.0000000000
     32006      2564  TIP3      OH2            24.8949329844       -0.5264581535       38.6333181932  TIP3      2364            0.0000000000
     32007      2564  TIP3      H1             24.7212455246       -1.0319272413       37.8006864085  TIP3      2364            0.0000000000
     32008      2564  TIP3      H2             24.2961367485        0.2387443481       38.5322584177  TIP3      2364            0.0000000000
     32009      2565  TIP3      OH2            17.9396634273       11.1314034499       21.1981925034  TIP3      2365            0.0000000000
     32010      2565  TIP3      H1             18.8887990854       11.1512981192       21.4488431526  TIP3      2365            0.0000000000
     32011      2565  TIP3      H2             17.9429830681       10.4786343608       20.4859387616  TIP3      2365            0.0000000000
     32012      2566  TIP3      OH2            16.6889531652       16.3548021444       26.2611834613  TIP3      2366            0.0000000000
     32013      2566  TIP3      H1             15.9995851164       15.8641533517       25.7677339949  TIP3      2366            0.0000000000
     32014      2566  TIP3      H2             16.9771843575       15.6916015486       26.9129351983  TIP3      2366            0.0000000000
     32015      2567  TIP3      OH2            17.5193990593       14.4820355189       28.1164221953  TIP3      2367            0.0000000000
     32016      2567  TIP3      H1             17.1658564090       13.6042070836       28.3164579028  TIP3      2367            0.0000000000
     32017      2567  TIP3      H2             17.7445807386       14.8132696774       29.0018467876  TIP3      2367            0.0000000000
     32018      2568  TIP3      OH2            35.0611408457       15.2644569230       31.0444632217  TIP3      2368            0.0000000000
     32019      2568  TIP3      H1             35.0706692791       15.4308720720       32.0029600028  TIP3      2368            0.0000000000
     32020      2568  TIP3      H2             35.7652196729       15.8518878923       30.7486996459  TIP3      2368            0.0000000000
     32021      2569  TIP3      OH2            34.6218239205       14.8760095663       34.0005091308  TIP3      2369            0.0000000000
     32022      2569  TIP3      H1             34.1572161142       14.1068388046       33.6125009076  TIP3      2369            0.0000000000
     32023      2569  TIP3      H2             35.1318707688       14.4250992755       34.6935920393  TIP3      2369            0.0000000000
     32024      2570  TIP3      OH2            33.0620015974       10.5971997320       38.6618071892  TIP3      2370            0.0000000000
     32025      2570  TIP3      H1             32.1557829367       10.5748421177       39.0303948909  TIP3      2370            0.0000000000
     32026      2570  TIP3      H2             33.4502387960       11.3952522533       39.0758880284  TIP3      2370            0.0000000000
     32027      2571  TIP3      OH2            34.3617502179        8.9187785306       24.1233171175  TIP3      2371            0.0000000000
     32028      2571  TIP3      H1             35.2398539323        9.3100539262       24.2551379722  TIP3      2371            0.0000000000
     32029      2571  TIP3      H2             34.3792385845        8.2039494170       24.7943958376  TIP3      2371            0.0000000000
     32030      2572  TIP3      OH2            34.7617933447        6.9673195772       25.9617046356  TIP3      2372            0.0000000000
     32031      2572  TIP3      H1             34.0041258510        6.4958694457       26.3687275351  TIP3      2372            0.0000000000
     32032      2572  TIP3      H2             35.3512390070        7.1329106518       26.7265258072  TIP3      2372            0.0000000000
     32033      2573  TIP3      OH2            34.5438805961        9.6972604598       30.9752371514  TIP3      2373            0.0000000000
     32034      2573  TIP3      H1             35.3630700544        9.3205593921       30.5996627869  TIP3      2373            0.0000000000
     32035      2573  TIP3      H2             34.6608255711       10.6503476830       30.7875977372  TIP3      2373            0.0000000000
     32036      2574  TIP3      OH2            33.0641872893       12.6001623451       33.2338820864  TIP3      2374            0.0000000000
     32037      2574  TIP3      H1             32.3772607580       12.9433792681       33.8234061246  TIP3      2374            0.0000000000
     32038      2574  TIP3      H2             32.5202205904       12.2012629055       32.5250414739  TIP3      2374            0.0000000000
     32039      2575  TIP3      OH2            34.9503169584        6.7839743101       22.3747230883  TIP3      2375            0.0000000000
     32040      2575  TIP3      H1             34.5375941284        7.2929795818       21.6726244919  TIP3      2375            0.0000000000
     32041      2575  TIP3      H2             35.0121063518        7.5200620257       23.0195441992  TIP3      2375            0.0000000000
     32042      2576  TIP3      OH2            32.5675870084        5.4660012046       26.5342300287  TIP3      2376            0.0000000000
     32043      2576  TIP3      H1             32.4189967488        4.5136215850       26.5328996185  TIP3      2376            0.0000000000
     32044      2576  TIP3      H2             32.2380594156        5.6982811309       27.4226141044  TIP3      2376            0.0000000000
     32045      2577  TIP3      OH2            17.5771311414        7.5691005834       30.6098103545  TIP3      2377            0.0000000000
     32046      2577  TIP3      H1             17.7597051299        7.4658595869       29.6525564531  TIP3      2377            0.0000000000
     32047      2577  TIP3      H2             18.4691486805        7.3685750673       30.9613508401  TIP3      2377            0.0000000000
     32048      2578  TIP3      OH2            33.4148611908        7.4308859954       36.2647351015  TIP3      2378            0.0000000000
     32049      2578  TIP3      H1             34.0389971464        6.6839945989       36.3701200630  TIP3      2378            0.0000000000
     32050      2578  TIP3      H2             34.0170431501        8.2081300332       36.2340753647  TIP3      2378            0.0000000000
     32051      2579  TIP3      OH2            34.9638219903        5.3190956480       36.8873390011  TIP3      2379            0.0000000000
     32052      2579  TIP3      H1             34.0798558311        4.9262640007       36.7296860328  TIP3      2379            0.0000000000
     32053      2579  TIP3      H2             35.5274144112        4.5262695984       36.8178034530  TIP3      2379            0.0000000000
     32054      2580  TIP3      OH2            32.2317726709        3.0484210282       24.9481644100  TIP3      2380            0.0000000000
     32055      2580  TIP3      H1             32.5351139933        2.1323754140       25.1490048750  TIP3      2380            0.0000000000
     32056      2580  TIP3      H2             33.0510263065        3.4769934580       24.6855440444  TIP3      2380            0.0000000000
     32057      2581  TIP3      OH2            32.8796130259        3.5874006337       30.4585753102  TIP3      2381            0.0000000000
     32058      2581  TIP3      H1             33.8359923700        3.8286494387       30.4358392385  TIP3      2381            0.0000000000
     32059      2581  TIP3      H2             32.6920178413        3.7415528540       31.3952352196  TIP3      2381            0.0000000000
     32060      2582  TIP3      OH2            32.9448580884        4.3156552463       33.2339229643  TIP3      2382            0.0000000000
     32061      2582  TIP3      H1             32.0637233626        4.6059701667       33.5481114337  TIP3      2382            0.0000000000
     32062      2582  TIP3      H2             33.3782725043        5.1745487494       33.0128830536  TIP3      2382            0.0000000000
     32063      2583  TIP3      OH2            17.1986196136        2.8642424104       36.7726359497  TIP3      2383            0.0000000000
     32064      2583  TIP3      H1             18.1359601437        2.6500204569       36.9593381205  TIP3      2383            0.0000000000
     32065      2583  TIP3      H2             16.7402150411        2.0374029633       37.0369193724  TIP3      2383            0.0000000000
     32066      2584  TIP3      OH2            35.2363735976       -1.6192011605       38.5750532972  TIP3      2384            0.0000000000
     32067      2584  TIP3      H1             35.5911697815       -2.2801202550       37.9522934021  TIP3      2384            0.0000000000
     32068      2584  TIP3      H2             35.3091128099       -0.8054855467       38.0370601591  TIP3      2384            0.0000000000
     32069      2585  TIP3      OH2            32.8886286819        0.3519895534       25.0204975395  TIP3      2385            0.0000000000
     32070      2585  TIP3      H1             33.1190561816       -0.0750980070       25.8786469341  TIP3      2385            0.0000000000
     32071      2585  TIP3      H2             32.2831868834       -0.3139261425       24.6218241892  TIP3      2385            0.0000000000
     32072      2586  TIP3      OH2            18.3948705792        1.1203660299       29.5938971430  TIP3      2386            0.0000000000
     32073      2586  TIP3      H1             18.8752628278        0.3346962290       29.8947047625  TIP3      2386            0.0000000000
     32074      2586  TIP3      H2             18.9319880270        1.8367400833       29.9824739114  TIP3      2386            0.0000000000
     32075      2587  TIP3      OH2            16.6189796982        4.1524189179       30.7064556225  TIP3      2387            0.0000000000
     32076      2587  TIP3      H1             17.1938265600        3.8903265532       29.9360601720  TIP3      2387            0.0000000000
     32077      2587  TIP3      H2             17.1280661406        4.9448379926       30.9243348556  TIP3      2387            0.0000000000
     32078      2588  TIP3      OH2            34.7482092807        0.4734754875       36.9335346555  TIP3      2388            0.0000000000
     32079      2588  TIP3      H1             33.8142163160        0.7602221068       36.8804529912  TIP3      2388            0.0000000000
     32080      2588  TIP3      H2             34.7533765385       -0.0654793389       36.1270923213  TIP3      2388            0.0000000000
     32081      2589  TIP3      OH2            17.0401371315        0.3763656336       24.7177120541  TIP3      2389            0.0000000000
     32082      2589  TIP3      H1             16.0963268320        0.5873347938       24.5843582438  TIP3      2389            0.0000000000
     32083      2589  TIP3      H2             17.4501168624        0.8811677479       23.9971467957  TIP3      2389            0.0000000000
     32084      2590  TIP3      OH2            31.7886081426       15.3747668331       26.6475849608  TIP3      2390            0.0000000000
     32085      2590  TIP3      H1             32.4707729541       15.0560632620       26.0325632307  TIP3      2390            0.0000000000
     32086      2590  TIP3      H2             32.3049120906       15.8589045685       27.3110636722  TIP3      2390            0.0000000000
     32087      2591  TIP3      OH2            16.9878497902       -0.9518352023       32.9900381314  TIP3      2391            0.0000000000
     32088      2591  TIP3      H1             16.3359018082       -1.1308693418       33.6906505028  TIP3      2391            0.0000000000
     32089      2591  TIP3      H2             16.5314065453       -0.2481660800       32.4816463226  TIP3      2391            0.0000000000
     32090      2592  TIP3      OH2            19.2333228592       12.2611555771       37.1844469715  TIP3      2392            0.0000000000
     32091      2592  TIP3      H1             18.3947400541       12.4825036156       36.7448095660  TIP3      2392            0.0000000000
     32092      2592  TIP3      H2             18.9643281808       12.1874616544       38.1043295008  TIP3      2392            0.0000000000
     32093      2593  TIP3      OH2            22.1346645689       13.2747511505       33.4681123735  TIP3      2393            0.0000000000
     32094      2593  TIP3      H1             21.8030853277       14.1394359969       33.1899012454  TIP3      2393            0.0000000000
     32095      2593  TIP3      H2             23.0589780121       13.3565085778       33.1552077528  TIP3      2393            0.0000000000
     32096      2594  TIP3      OH2            26.4372722401       14.8052115670       36.4309160503  TIP3      2394            0.0000000000
     32097      2594  TIP3      H1             26.6405228601       14.1488463165       37.1337881500  TIP3      2394            0.0000000000
     32098      2594  TIP3      H2             27.3429611922       14.9903020339       36.0698971605  TIP3      2394            0.0000000000
     32099      2595  TIP3      OH2            28.7304051505       15.9351699033       35.7016060404  TIP3      2395            0.0000000000
     32100      2595  TIP3      H1             29.4797432480       15.3994826024       35.4004922022  TIP3      2395            0.0000000000
     32101      2595  TIP3      H2             29.1439249152       16.4128586242       36.4513861387  TIP3      2395            0.0000000000
     32102      2596  TIP3      OH2            33.7789077553       -1.4233278723       34.7793149993  TIP3      2396            0.0000000000
     32103      2596  TIP3      H1             32.9423107330       -1.1237078019       34.3737789555  TIP3      2396            0.0000000000
     32104      2596  TIP3      H2             33.9245898196       -2.2513429764       34.2700183460  TIP3      2396            0.0000000000
     32105      2597  TIP3      OH2            19.5531794616       16.5071600503       33.4513457194  TIP3      2397            0.0000000000
     32106      2597  TIP3      H1             18.8245319908       17.0077059634       33.0572196189  TIP3      2397            0.0000000000
     32107      2597  TIP3      H2             19.2453999112       16.3166378240       34.3485707151  TIP3      2397            0.0000000000
     32108      2598  TIP3      OH2            22.0225278398       16.0828833652       32.5285798472  TIP3      2398            0.0000000000
     32109      2598  TIP3      H1             21.1300427946       16.2356331493       32.9194910470  TIP3      2398            0.0000000000
     32110      2598  TIP3      H2             21.9675588400       16.6734760620       31.7555152931  TIP3      2398            0.0000000000
     32111      2599  TIP3      OH2            26.7331220168       15.9977384534       31.6942041314  TIP3      2399            0.0000000000
     32112      2599  TIP3      H1             26.2677298721       16.5546725796       31.0498035444  TIP3      2399            0.0000000000
     32113      2599  TIP3      H2             26.8608998707       16.6304998784       32.4339743496  TIP3      2399            0.0000000000
     32114      2600  TIP3      OH2            29.0136460021       14.8042256632       32.7341778001  TIP3      2400            0.0000000000
     32115      2600  TIP3      H1             28.1644927179       15.0829559251       32.3541521336  TIP3      2400            0.0000000000
     32116      2600  TIP3      H2             29.5006353263       15.6404702747       32.6368392682  TIP3      2400            0.0000000000
     32117      2601  TIP3      OH2            31.6029130347       16.3798695443       32.9495764342  TIP3      2401            0.0000000000
     32118      2601  TIP3      H1             31.5498476225       17.3382625280       32.7181820888  TIP3      2401            0.0000000000
     32119      2601  TIP3      H2             31.7992904328       16.0038924574       32.0702754965  TIP3      2401            0.0000000000
     32120      2602  TIP3      OH2            19.0172078745       15.1557558081       30.3962636568  TIP3      2402            0.0000000000
     32121      2602  TIP3      H1             18.9316798837       14.6965914591       31.2565325371  TIP3      2402            0.0000000000
     32122      2602  TIP3      H2             19.8309391820       14.7746803067       30.0088953869  TIP3      2402            0.0000000000
     32123      2603  TIP3      OH2            21.0919234330       13.8669261791       29.0503241691  TIP3      2403            0.0000000000
     32124      2603  TIP3      H1             20.9286219188       12.9347707634       29.2829797035  TIP3      2403            0.0000000000
     32125      2603  TIP3      H2             21.9467498937       14.0230290707       29.5034271313  TIP3      2403            0.0000000000
     32126      2604  TIP3      OH2            23.6998781627       14.3520963281       29.9330308900  TIP3      2404            0.0000000000
     32127      2604  TIP3      H1             23.8486097717       13.4278883538       29.6648644264  TIP3      2404            0.0000000000
     32128      2604  TIP3      H2             23.7387764233       14.2820427739       30.8965999440  TIP3      2404            0.0000000000
     32129      2605  TIP3      OH2            27.1445088015        0.0006909205       29.0572868413  TIP3      2405            0.0000000000
     32130      2605  TIP3      H1             26.4670292855       -0.6359148330       29.3397792291  TIP3      2405            0.0000000000
     32131      2605  TIP3      H2             27.6886860712       -0.5352230143       28.4753329325  TIP3      2405            0.0000000000
     32132      2606  TIP3      OH2            32.2851680756       -1.9584999716       29.1335903113  TIP3      2406            0.0000000000
     32133      2606  TIP3      H1             32.8925035106       -1.3654018331       28.6234396956  TIP3      2406            0.0000000000
     32134      2606  TIP3      H2             31.4017497755       -1.5967241580       28.9070918304  TIP3      2406            0.0000000000
     32135      2607  TIP3      OH2            33.9400778415       -0.6842049442       27.3864234013  TIP3      2407            0.0000000000
     32136      2607  TIP3      H1             34.6281545178       -1.2828916356       27.0050416078  TIP3      2407            0.0000000000
     32137      2607  TIP3      H2             34.4595326399        0.1347987711       27.5413271223  TIP3      2407            0.0000000000
     32138      2608  TIP3      OH2            19.5567328129       -1.3104086617       26.8663969250  TIP3      2408            0.0000000000
     32139      2608  TIP3      H1             18.7625232245       -1.4523088192       26.3028202391  TIP3      2408            0.0000000000
     32140      2608  TIP3      H2             20.0799903182       -2.1291505885       26.7473878141  TIP3      2408            0.0000000000
     32141      2609  TIP3      OH2            23.9759854551       -1.4352756178       26.6238017982  TIP3      2409            0.0000000000
     32142      2609  TIP3      H1             24.8881230561       -1.0814193241       26.6508560078  TIP3      2409            0.0000000000
     32143      2609  TIP3      H2             23.9435117449       -1.6571803353       27.5693395801  TIP3      2409            0.0000000000
     32144      2610  TIP3      OH2            29.6956283230       -1.4246689707       28.3105111075  TIP3      2410            0.0000000000
     32145      2610  TIP3      H1             29.6551591954       -1.3213685021       27.3510358666  TIP3      2410            0.0000000000
     32146      2610  TIP3      H2             29.3047885074       -2.3219773242       28.4449876356  TIP3      2410            0.0000000000
     32147      2611  TIP3      OH2            30.9796734817       -1.3796056221       24.0168889313  TIP3      2411            0.0000000000
     32148      2611  TIP3      H1             30.2132473095       -0.8233240425       23.8162354884  TIP3      2411            0.0000000000
     32149      2611  TIP3      H2             30.5510042507       -2.2528110086       24.1914294337  TIP3      2411            0.0000000000
     32150      2612  TIP3      OH2            18.1578788847       14.3703269910       23.6854039607  TIP3      2412            0.0000000000
     32151      2612  TIP3      H1             17.6001879077       14.3426741541       22.8956007675  TIP3      2412            0.0000000000
     32152      2612  TIP3      H2             18.2569162614       15.3328680521       23.7733317219  TIP3      2412            0.0000000000
     32153      2613  TIP3      OH2            25.0179459579        0.5292784798       23.6630668635  TIP3      2413            0.0000000000
     32154      2613  TIP3      H1             25.5563609040        0.0614038858       24.3181149179  TIP3      2413            0.0000000000
     32155      2613  TIP3      H2             25.2209801594        1.4514084883       23.9699279266  TIP3      2413            0.0000000000
     32156      2614  TIP3      OH2            33.7974985641       15.1498815552       24.7185863004  TIP3      2414            0.0000000000
     32157      2614  TIP3      H1             33.5689775548       14.3650665689       24.1669042416  TIP3      2414            0.0000000000
     32158      2614  TIP3      H2             33.6929873389       15.8776024649       24.0656797431  TIP3      2414            0.0000000000
     32159      2615  TIP3      OH2            19.4029799431       -0.8321561180       36.3608748744  TIP3      2415            0.0000000000
     32160      2615  TIP3      H1             19.0106388978       -1.6276578857       36.7677506045  TIP3      2415            0.0000000000
     32161      2615  TIP3      H2             20.3116871700       -0.8736490850       36.7455432146  TIP3      2415            0.0000000000
     32162      2616  TIP3      OH2            21.4038317169       -1.4466948659       38.0092426184  TIP3      2416            0.0000000000
     32163      2616  TIP3      H1             22.2965152619       -1.7842167220       37.7921149335  TIP3      2416            0.0000000000
     32164      2616  TIP3      H2             21.0299692786       -2.2534818184       38.4153408591  TIP3      2416            0.0000000000
     32165      2617  TIP3      OH2            29.8060985550       -2.1626459025       38.1566831339  TIP3      2417            0.0000000000
     32166      2617  TIP3      H1             29.9010380362       -2.6343172131       39.0073443921  TIP3      2417            0.0000000000
     32167      2617  TIP3      H2             30.7234959160       -2.1947051652       37.8148669963  TIP3      2417            0.0000000000
     32168      2618  TIP3      OH2            33.0098615746       13.8886799683       36.7887891123  TIP3      2418            0.0000000000
     32169      2618  TIP3      H1             32.1956356867       13.7529425128       36.2546318333  TIP3      2418            0.0000000000
     32170      2618  TIP3      H2             32.8952893162       14.8352319846       37.0056746888  TIP3      2418            0.0000000000
     32171      2619  TIP3      OH2            38.5668214776        6.7634428369       31.9517624744  TIP3      2419            0.0000000000
     32172      2619  TIP3      H1             38.7522837990        5.9874165218       32.5290950815  TIP3      2419            0.0000000000
     32173      2619  TIP3      H2             39.4309025951        7.2039146028       31.9545384066  TIP3      2419            0.0000000000
     32174      2620  TIP3      OH2           -40.3908502223       10.6019297284       30.6961560706  TIP3      2420            0.0000000000
     32175      2620  TIP3      H1            -40.6076669725       10.0605156741       29.9103788731  TIP3      2420            0.0000000000
     32176      2620  TIP3      H2            -39.5357189074       10.9322622458       30.4072888634  TIP3      2420            0.0000000000
     32177      2621  TIP3      OH2            36.2096814334        4.6718680278       25.7886191483  TIP3      2421            0.0000000000
     32178      2621  TIP3      H1             35.8096996745        5.5648904392       25.7563195487  TIP3      2421            0.0000000000
     32179      2621  TIP3      H2             35.6006076519        4.1695007233       25.2504260494  TIP3      2421            0.0000000000
     32180      2622  TIP3      OH2            36.9483921975        6.9287102179       27.9414204850  TIP3      2422            0.0000000000
     32181      2622  TIP3      H1             37.2199253765        6.1133347639       28.4093305512  TIP3      2422            0.0000000000
     32182      2622  TIP3      H2             37.6659328366        7.0401692119       27.3018331600  TIP3      2422            0.0000000000
     32183      2623  TIP3      OH2            37.5879232504        4.3774107910       28.9834282828  TIP3      2423            0.0000000000
     32184      2623  TIP3      H1             38.2828138345        3.8904661116       29.4653720118  TIP3      2423            0.0000000000
     32185      2623  TIP3      H2             37.7384772616        4.0529025844       28.0837501482  TIP3      2423            0.0000000000
     32186      2624  TIP3      OH2            39.3728881976        2.2826799934       30.2952223214  TIP3      2424            0.0000000000
     32187      2624  TIP3      H1             39.7694955658        3.0575995548       30.7541099171  TIP3      2424            0.0000000000
     32188      2624  TIP3      H2             39.9451068749        2.1521591027       29.5188542513  TIP3      2424            0.0000000000
     32189      2625  TIP3      OH2            36.9323396304       10.1563268715       24.1577935616  TIP3      2425            0.0000000000
     32190      2625  TIP3      H1             36.6379167661       10.4487288127       23.2849757140  TIP3      2425            0.0000000000
     32191      2625  TIP3      H2             37.0085404400       10.9925309640       24.6732110176  TIP3      2425            0.0000000000
     32192      2626  TIP3      OH2            38.9696550536        7.1803419868       34.7566113085  TIP3      2426            0.0000000000
     32193      2626  TIP3      H1             39.2135846852        7.9202042590       35.3476036453  TIP3      2426            0.0000000000
     32194      2626  TIP3      H2             38.1304141283        7.4565792292       34.3640207022  TIP3      2426            0.0000000000
     32195      2627  TIP3      OH2            36.1732270789        9.3336891943       33.6481643399  TIP3      2427            0.0000000000
     32196      2627  TIP3      H1             35.7946226450        9.2418393453       32.7595425580  TIP3      2427            0.0000000000
     32197      2627  TIP3      H2             36.3206070622        8.3866339688       33.8452560566  TIP3      2427            0.0000000000
     32198      2628  TIP3      OH2            36.0382732987       12.0550727908       30.4247458586  TIP3      2428            0.0000000000
     32199      2628  TIP3      H1             36.9950723971       11.9273569689       30.4190555196  TIP3      2428            0.0000000000
     32200      2628  TIP3      H2             35.9246593518       12.8829060335       30.9134318181  TIP3      2428            0.0000000000
     32201      2629  TIP3      OH2            39.0277005204       14.4617419889       26.4435236926  TIP3      2429            0.0000000000
     32202      2629  TIP3      H1             39.3139481941       14.4678688096       27.3757068171  TIP3      2429            0.0000000000
     32203      2629  TIP3      H2             38.0787586606       14.4077419101       26.4428107382  TIP3      2429            0.0000000000
     32204      2630  TIP3      OH2            38.4835118494       10.6714296653       34.6023921277  TIP3      2430            0.0000000000
     32205      2630  TIP3      H1             38.7705259785       10.2532653517       35.4366454051  TIP3      2430            0.0000000000
     32206      2630  TIP3      H2             37.6618074334       10.2226315178       34.3444676357  TIP3      2430            0.0000000000
     32207      2631  TIP3      OH2            38.9279012598        4.3626034779       33.5043449005  TIP3      2431            0.0000000000
     32208      2631  TIP3      H1             38.9654147152        4.7002362066       34.4053838098  TIP3      2431            0.0000000000
     32209      2631  TIP3      H2             38.5212865083        3.4912642494       33.6279836960  TIP3      2431            0.0000000000
     32210      2632  TIP3      OH2            35.5732944202        1.4525485138       27.4386909677  TIP3      2432            0.0000000000
     32211      2632  TIP3      H1             36.2645518428        1.4038670022       28.1405563619  TIP3      2432            0.0000000000
     32212      2632  TIP3      H2             36.0306773576        1.0726018664       26.6719383118  TIP3      2432            0.0000000000
     32213      2633  TIP3      OH2            36.7724443522        2.1462929977       22.7581007852  TIP3      2433            0.0000000000
     32214      2633  TIP3      H1             37.3707876574        2.7575669040       22.2562581765  TIP3      2433            0.0000000000
     32215      2633  TIP3      H2             36.1972085376        2.7984863681       23.1966334201  TIP3      2433            0.0000000000
     32216      2634  TIP3      OH2            38.5480062047        3.4266603617       26.4056303582  TIP3      2434            0.0000000000
     32217      2634  TIP3      H1             37.6293979992        3.4292149549       26.1093012873  TIP3      2434            0.0000000000
     32218      2634  TIP3      H2             38.8804736057        2.5152440899       26.2822795030  TIP3      2434            0.0000000000
     32219      2635  TIP3      OH2            39.0073307576        9.1819456226       36.7531884739  TIP3      2435            0.0000000000
     32220      2635  TIP3      H1             39.6249231104        9.3400968859       37.4489056703  TIP3      2435            0.0000000000
     32221      2635  TIP3      H2             38.2008575568        9.2378053828       37.3096620274  TIP3      2435            0.0000000000
     32222      2636  TIP3      OH2            39.1945180748        8.4451102471       29.1726719959  TIP3      2436            0.0000000000
     32223      2636  TIP3      H1             40.0476366367        8.4589618406       28.7112773349  TIP3      2436            0.0000000000
     32224      2636  TIP3      H2             39.3511344581        7.7515624087       29.8548544765  TIP3      2436            0.0000000000
     32225      2637  TIP3      OH2            36.3612444512        6.9115298574       34.7668400524  TIP3      2437            0.0000000000
     32226      2637  TIP3      H1             36.6603955569        6.4180988629       35.5568355683  TIP3      2437            0.0000000000
     32227      2637  TIP3      H2             35.8306071498        6.2504380764       34.2844926002  TIP3      2437            0.0000000000
     32228      2638  TIP3      OH2            37.5441933120        6.7165230604       21.4659275088  TIP3      2438            0.0000000000
     32229      2638  TIP3      H1             38.1514266558        7.4217054893       21.7677627862  TIP3      2438            0.0000000000
     32230      2638  TIP3      H2             36.6791599645        7.1282816768       21.6302141095  TIP3      2438            0.0000000000
     32231      2639  TIP3      OH2            38.0702536961        1.5847833104       34.2841732312  TIP3      2439            0.0000000000
     32232      2639  TIP3      H1             37.1633104073        1.9313708980       34.2036756550  TIP3      2439            0.0000000000
     32233      2639  TIP3      H2             37.9505978458        0.7317713691       34.7268557057  TIP3      2439            0.0000000000
     32234      2640  TIP3      OH2            37.7124711626       13.3758387309       32.7008879509  TIP3      2440            0.0000000000
     32235      2640  TIP3      H1             37.9451915049       12.4342233571       32.7241795147  TIP3      2440            0.0000000000
     32236      2640  TIP3      H2             37.9801070731       13.6675705624       33.5862362305  TIP3      2440            0.0000000000
     32237      2641  TIP3      OH2            38.9405493043        8.6736439272       22.8760665612  TIP3      2441            0.0000000000
     32238      2641  TIP3      H1             38.3029368770        9.0426430731       23.5153797070  TIP3      2441            0.0000000000
     32239      2641  TIP3      H2             39.4157465369        9.4646155221       22.6076021062  TIP3      2441            0.0000000000
     32240      2642  TIP3      OH2            39.5867659873       11.2912365240       21.7989115779  TIP3      2442            0.0000000000
     32241      2642  TIP3      H1             40.1986081999       11.9816066174       22.0391497410  TIP3      2442            0.0000000000
     32242      2642  TIP3      H2             40.0366836023       10.8658350334       21.0464374660  TIP3      2442            0.0000000000
     32243      2643  TIP3      OH2            37.8348179311        3.9711629511       21.0626007820  TIP3      2443            0.0000000000
     32244      2643  TIP3      H1             37.8850239486        4.9563006618       21.0418578937  TIP3      2443            0.0000000000
     32245      2643  TIP3      H2             37.0702853932        3.8079096528       20.5150621981  TIP3      2443            0.0000000000
     32246      2644  TIP3      OH2            38.6539765701       -1.2145018557       29.6800706608  TIP3      2444            0.0000000000
     32247      2644  TIP3      H1             38.4773910005       -1.1730540723       28.7130826473  TIP3      2444            0.0000000000
     32248      2644  TIP3      H2             38.2853356120       -2.0725065343       29.9455449414  TIP3      2444            0.0000000000
     32249      2645  TIP3      OH2            37.4781867804       12.5446298317       25.6597812772  TIP3      2445            0.0000000000
     32250      2645  TIP3      H1             36.7380983250       13.1582414079       25.7222583711  TIP3      2445            0.0000000000
     32251      2645  TIP3      H2             38.1428340704       13.0986932123       25.1987927946  TIP3      2445            0.0000000000
     32252      2646  TIP3      OH2            36.8541064839       15.3233685381       37.0891578376  TIP3      2446            0.0000000000
     32253      2646  TIP3      H1             37.4648030183       15.1170048526       37.8270788501  TIP3      2446            0.0000000000
     32254      2646  TIP3      H2             36.4329301961       14.4615893710       36.9047920414  TIP3      2446            0.0000000000
     32255      2647  TIP3      OH2            36.7745725745        9.0937746277       38.0764917162  TIP3      2447            0.0000000000
     32256      2647  TIP3      H1             36.9547397017        8.1892618689       37.7621001009  TIP3      2447            0.0000000000
     32257      2647  TIP3      H2             36.0262366036        9.3604353666       37.5113912101  TIP3      2447            0.0000000000
     32258      2648  TIP3      OH2            37.6991409837        6.3450288154       37.4942230815  TIP3      2448            0.0000000000
     32259      2648  TIP3      H1             38.0122078974        5.4473707558       37.3360755373  TIP3      2448            0.0000000000
     32260      2648  TIP3      H2             37.4228995577        6.3104007897       38.4232241325  TIP3      2448            0.0000000000
     32261      2649  TIP3      OH2            38.4057797464        1.7598121642       37.5939344441  TIP3      2449            0.0000000000
     32262      2649  TIP3      H1             38.6587798188        1.0502014681       36.9715828043  TIP3      2449            0.0000000000
     32263      2649  TIP3      H2             38.4483282633        1.3237235739       38.4657122517  TIP3      2449            0.0000000000
     32264      2650  TIP3      OH2            35.5281756794       16.3489249089       26.2594678152  TIP3      2450            0.0000000000
     32265      2650  TIP3      H1             34.8303518121       15.8507116058       25.7763557002  TIP3      2450            0.0000000000
     32266      2650  TIP3      H2             35.8140434098       15.6945390328       26.9270435957  TIP3      2450            0.0000000000
     32267      2651  TIP3      OH2            36.3865138813       14.4723578618       28.1075488369  TIP3      2451            0.0000000000
     32268      2651  TIP3      H1             36.0339440898       13.5935491468       28.3110205032  TIP3      2451            0.0000000000
     32269      2651  TIP3      H2             36.6080940977       14.8129871307       28.9945780419  TIP3      2451            0.0000000000
     32270      2652  TIP3      OH2            36.4466460475        7.5449230532       30.6008337662  TIP3      2452            0.0000000000
     32271      2652  TIP3      H1             36.6363912269        7.4605310730       29.6422409834  TIP3      2452            0.0000000000
     32272      2652  TIP3      H2             37.3425101402        7.3600663964       30.9712230791  TIP3      2452            0.0000000000
     32273      2653  TIP3      OH2            36.0047434227        2.8714714178       36.7667925036  TIP3      2453            0.0000000000
     32274      2653  TIP3      H1             36.9373751235        2.6611166273       36.9585294732  TIP3      2453            0.0000000000
     32275      2653  TIP3      H2             35.5747014220        2.0373045664       37.0300757001  TIP3      2453            0.0000000000
     32276      2654  TIP3      OH2            37.1612705590        1.1515640948       29.6100500102  TIP3      2454            0.0000000000
     32277      2654  TIP3      H1             37.6897699632        0.3478754488       29.8073896292  TIP3      2454            0.0000000000
     32278      2654  TIP3      H2             37.7938514605        1.8020321270       29.9741322486  TIP3      2454            0.0000000000
     32279      2655  TIP3      OH2            35.5284932499        4.1533034704       30.6322125494  TIP3      2455            0.0000000000
     32280      2655  TIP3      H1             36.1196651824        3.9037010282       29.8889475481  TIP3      2455            0.0000000000
     32281      2655  TIP3      H2             35.9903144950        4.9537556010       30.9188848781  TIP3      2455            0.0000000000
     32282      2656  TIP3      OH2            35.8784401311        0.3968111693       24.7103939930  TIP3      2456            0.0000000000
     32283      2656  TIP3      H1             34.9435265503        0.5966104728       24.5936719629  TIP3      2456            0.0000000000
     32284      2656  TIP3      H2             36.3284815770        0.8970867062       24.0103375559  TIP3      2456            0.0000000000
     32285      2657  TIP3      OH2            35.8425919465       -0.9543306904       33.0171160789  TIP3      2457            0.0000000000
     32286      2657  TIP3      H1             35.1726675879       -1.1261141801       33.7031637122  TIP3      2457            0.0000000000
     32287      2657  TIP3      H2             35.4153773475       -0.2661903539       32.4711053140  TIP3      2457            0.0000000000
     32288      2658  TIP3      OH2            38.0949578168       12.2290496787       37.2245279208  TIP3      2458            0.0000000000
     32289      2658  TIP3      H1             37.2930574320       12.4406826777       36.7116527510  TIP3      2458            0.0000000000
     32290      2658  TIP3      H2             37.7407401132       12.2055677307       38.1125151011  TIP3      2458            0.0000000000
     32291      2659  TIP3      OH2            38.3073517207       16.4166443604       33.4758655435  TIP3      2459            0.0000000000
     32292      2659  TIP3      H1             37.6008447282       16.9497662712       33.0729180016  TIP3      2459            0.0000000000
     32293      2659  TIP3      H2             38.0105868436       16.2671649289       34.3753881592  TIP3      2459            0.0000000000
     32294      2660  TIP3      OH2            37.8128278590       15.1209388863       30.3981527408  TIP3      2460            0.0000000000
     32295      2660  TIP3      H1             37.7729814174       14.7157644210       31.2968362222  TIP3      2460            0.0000000000
     32296      2660  TIP3      H2             38.6753148395       14.8405042896       30.0658433365  TIP3      2460            0.0000000000
     32297      2661  TIP3      OH2            38.0702999714       -1.3319699096       27.0608179141  TIP3      2461            0.0000000000
     32298      2661  TIP3      H1             37.4415322690       -1.5444574355       26.3557133550  TIP3      2461            0.0000000000
     32299      2661  TIP3      H2             38.7919618877       -1.9575112028       26.9270643072  TIP3      2461            0.0000000000
     32300      2662  TIP3      OH2            37.2013462816       -1.6013563768       22.6940219199  TIP3      2462            0.0000000000
     32301      2662  TIP3      H1             37.5944382123       -0.9807887458       22.0420834769  TIP3      2462            0.0000000000
     32302      2662  TIP3      H2             36.5761756899       -1.0476931750       23.1800007791  TIP3      2462            0.0000000000
     32303      2663  TIP3      OH2            37.0505312147       14.3217737213       23.5771697633  TIP3      2463            0.0000000000
     32304      2663  TIP3      H1             36.3291120115       14.2954605837       22.9472679243  TIP3      2463            0.0000000000
     32305      2663  TIP3      H2             37.0570472221       15.2499648327       23.8366182918  TIP3      2463            0.0000000000
     32306      2664  TIP3      OH2            38.9964231208        0.2697286897       21.2987107680  TIP3      2464            0.0000000000
     32307      2664  TIP3      H1             39.4237841399       -0.2017071774       20.5703406159  TIP3      2464            0.0000000000
     32308      2664  TIP3      H2             39.6901562894        0.7335132570       21.7623259044  TIP3      2464            0.0000000000
     32309      2665  TIP3      OH2            38.3242324459       -0.8271616157       36.4476987503  TIP3      2465            0.0000000000
     32310      2665  TIP3      H1             37.9099064031       -1.6415159256       36.7963396652  TIP3      2465            0.0000000000
     32311      2665  TIP3      H2             39.2580698605       -0.9177800016       36.6783309429  TIP3      2465            0.0000000000
     32312      2666  TIP3      OH2            39.3996070116       15.5181103219       21.9248987231  TIP3      2466            0.0000000000
     32313      2666  TIP3      H1             38.4519763634       15.6298243812       21.7735652351  TIP3      2466            0.0000000000
     32314      2666  TIP3      H2             39.7198344871       15.0777628597       21.1236978842  TIP3      2466            0.0000000000
     32315      2667  TIP3      OH2           -27.9595130005       26.6211256449       26.7971855637  TIP3      2467            0.0000000000
     32316      2667  TIP3      H1            -27.9802209387       27.6007214398       26.7304101914  TIP3      2467            0.0000000000
     32317      2667  TIP3      H2            -28.6707326092       26.3805408152       26.1823199295  TIP3      2467            0.0000000000
     32318      2668  TIP3      OH2           -29.1007499472       25.8765650246       30.2647316465  TIP3      2468            0.0000000000
     32319      2668  TIP3      H1            -29.1182046858       25.2284491427       30.9835069276  TIP3      2468            0.0000000000
     32320      2668  TIP3      H2            -29.4638826752       25.3740244484       29.5134424927  TIP3      2468            0.0000000000
     32321      2669  TIP3      OH2           -36.6622418904       25.5072495597       31.7885423339  TIP3      2469            0.0000000000
     32322      2669  TIP3      H1            -36.6708914670       24.8658090448       32.5288364892  TIP3      2469            0.0000000000
     32323      2669  TIP3      H2            -35.9972345852       26.1398485059       32.0883364378  TIP3      2469            0.0000000000
     32324      2670  TIP3      OH2           -25.4280774277       28.8331772656       28.5541921125  TIP3      2470            0.0000000000
     32325      2670  TIP3      H1            -25.8273296629       28.1073507076       29.0451835880  TIP3      2470            0.0000000000
     32326      2670  TIP3      H2            -25.3966333817       29.5348873570       29.2293181862  TIP3      2470            0.0000000000
     32327      2671  TIP3      OH2           -35.8387915650       29.9920935557       30.3312220390  TIP3      2471            0.0000000000
     32328      2671  TIP3      H1            -36.1296182739       29.1255240504       29.9956974453  TIP3      2471            0.0000000000
     32329      2671  TIP3      H2            -34.8801537567       29.8260119466       30.3740083956  TIP3      2471            0.0000000000
     32330      2672  TIP3      OH2           -39.0845484161       23.6473879154       25.6238485769  TIP3      2472            0.0000000000
     32331      2672  TIP3      H1            -39.5807173299       24.4625681450       25.7970510444  TIP3      2472            0.0000000000
     32332      2672  TIP3      H2            -39.8114105729       23.0350856496       25.4320858521  TIP3      2472            0.0000000000
     32333      2673  TIP3      OH2           -38.4104891146       25.8286700187       28.0249403351  TIP3      2473            0.0000000000
     32334      2673  TIP3      H1            -38.2301771454       24.9559114557       28.4178335407  TIP3      2473            0.0000000000
     32335      2673  TIP3      H2            -37.7600261384       25.8945298377       27.3076956193  TIP3      2473            0.0000000000
     32336      2674  TIP3      OH2           -28.3157111697       33.9749469823       28.7936325415  TIP3      2474            0.0000000000
     32337      2674  TIP3      H1            -27.6571590199       33.2956541560       28.5057006628  TIP3      2474            0.0000000000
     32338      2674  TIP3      H2            -28.5199993963       33.6434116487       29.6667648740  TIP3      2474            0.0000000000
     32339      2675  TIP3      OH2           -30.7361087620       28.2773583637       30.7459655255  TIP3      2475            0.0000000000
     32340      2675  TIP3      H1            -30.3996218452       27.6572226443       30.0758323991  TIP3      2475            0.0000000000
     32341      2675  TIP3      H2            -29.9213813170       28.4334026672       31.2561108108  TIP3      2475            0.0000000000
     32342      2676  TIP3      OH2           -22.1405428518       19.9426432677       31.4642439520  TIP3      2476            0.0000000000
     32343      2676  TIP3      H1            -21.9590558237       20.5258997544       32.2325155976  TIP3      2476            0.0000000000
     32344      2676  TIP3      H2            -21.5682215288       20.3611090388       30.8054900975  TIP3      2476            0.0000000000
     32345      2677  TIP3      OH2           -27.5648918447       22.7459982153       31.0568666042  TIP3      2477            0.0000000000
     32346      2677  TIP3      H1            -27.3969377025       21.7869942221       31.0627019980  TIP3      2477            0.0000000000
     32347      2677  TIP3      H2            -27.6680264268       22.8857296721       30.0960289490  TIP3      2477            0.0000000000
     32348      2678  TIP3      OH2           -34.4851339748       20.8439957864       28.2705981953  TIP3      2478            0.0000000000
     32349      2678  TIP3      H1            -34.3338369049       21.6699408712       27.7726583628  TIP3      2478            0.0000000000
     32350      2678  TIP3      H2            -34.8516981136       20.2664397825       27.5620434413  TIP3      2478            0.0000000000
     32351      2679  TIP3      OH2           -26.7033385087       20.9083902725       26.6500162488  TIP3      2479            0.0000000000
     32352      2679  TIP3      H1            -26.0495147366       20.6043595050       27.3224869546  TIP3      2479            0.0000000000
     32353      2679  TIP3      H2            -26.1526453010       21.4861888987       26.1003466444  TIP3      2479            0.0000000000
     32354      2680  TIP3      OH2           -37.7967710906       23.2180132864       28.9930683775  TIP3      2480            0.0000000000
     32355      2680  TIP3      H1            -37.1169755409       22.6873450456       29.4409390036  TIP3      2480            0.0000000000
     32356      2680  TIP3      H2            -37.7062338826       22.9114758380       28.0778263391  TIP3      2480            0.0000000000
     32357      2681  TIP3      OH2           -32.6687050370       24.8039327504       28.3419010207  TIP3      2481            0.0000000000
     32358      2681  TIP3      H1            -31.9890894272       24.2206025854       28.7159519492  TIP3      2481            0.0000000000
     32359      2681  TIP3      H2            -33.1783000260       24.1566983415       27.8136037660  TIP3      2481            0.0000000000
     32360      2682  TIP3      OH2           -21.6951191308       21.3381298690       33.7441380877  TIP3      2482            0.0000000000
     32361      2682  TIP3      H1            -22.2998639954       22.1100353224       33.6306679648  TIP3      2482            0.0000000000
     32362      2682  TIP3      H2            -21.6633893258       21.2653901264       34.7045460188  TIP3      2482            0.0000000000
     32363      2683  TIP3      OH2           -35.5403504981       19.7406881742       32.3118718463  TIP3      2483            0.0000000000
     32364      2683  TIP3      H1            -35.8179844539       20.3012110973       31.5569804236  TIP3      2483            0.0000000000
     32365      2683  TIP3      H2            -36.2314894647       19.9685080724       32.9830590086  TIP3      2483            0.0000000000
     32366      2684  TIP3      OH2           -28.2166181738       29.2145492822       25.8294147535  TIP3      2484            0.0000000000
     32367      2684  TIP3      H1            -28.5808514742       28.9334314921       24.9718507032  TIP3      2484            0.0000000000
     32368      2684  TIP3      H2            -28.5818909166       30.1266871587       25.9244534321  TIP3      2484            0.0000000000
     32369      2685  TIP3      OH2           -33.0349470742       27.3745074353       32.5481960847  TIP3      2485            0.0000000000
     32370      2685  TIP3      H1            -33.7455863664       28.0108346833       32.7785162630  TIP3      2485            0.0000000000
     32371      2685  TIP3      H2            -32.3300043113       27.9769960332       32.2580931308  TIP3      2485            0.0000000000
     32372      2686  TIP3      OH2           -24.8980012299       20.2611783424       28.6345406898  TIP3      2486            0.0000000000
     32373      2686  TIP3      H1            -25.1220768082       19.4933220886       29.1675862060  TIP3      2486            0.0000000000
     32374      2686  TIP3      H2            -24.2297775805       20.6979987117       29.1891596605  TIP3      2486            0.0000000000
     32375      2687  TIP3      OH2           -35.9846761484       21.5744717032       30.3576099282  TIP3      2487            0.0000000000
     32376      2687  TIP3      H1            -35.3753594620       22.2794369619       30.6711903019  TIP3      2487            0.0000000000
     32377      2687  TIP3      H2            -35.4587248068       21.1887227011       29.6052223380  TIP3      2487            0.0000000000
     32378      2688  TIP3      OH2           -34.5756020955       29.3904729036       33.3615348751  TIP3      2488            0.0000000000
     32379      2688  TIP3      H1            -34.6228420252       30.3054955081       33.0347870138  TIP3      2488            0.0000000000
     32380      2688  TIP3      H2            -35.4624075547       29.2978897059       33.7878661693  TIP3      2488            0.0000000000
     32381      2689  TIP3      OH2           -38.4299746324       29.0624577703       24.1141171795  TIP3      2489            0.0000000000
     32382      2689  TIP3      H1            -38.8103916755       29.3520745488       23.2700731711  TIP3      2489            0.0000000000
     32383      2689  TIP3      H2            -38.4564835529       29.8588725251       24.6737005602  TIP3      2489            0.0000000000
     32384      2690  TIP3      OH2           -24.8936892674       30.6640056884       30.9236570603  TIP3      2490            0.0000000000
     32385      2690  TIP3      H1            -25.8612563703       30.7763433145       31.0434084718  TIP3      2490            0.0000000000
     32386      2690  TIP3      H2            -24.6229663437       31.5800557404       30.7208145256  TIP3      2490            0.0000000000
     32387      2691  TIP3      OH2           -24.5716464555       18.9463527992       32.3111473707  TIP3      2491            0.0000000000
     32388      2691  TIP3      H1            -25.2936619141       19.5806499560       32.2172048912  TIP3      2491            0.0000000000
     32389      2691  TIP3      H2            -23.8553920387       19.3653301420       31.7885218309  TIP3      2491            0.0000000000
     32390      2692  TIP3      OH2           -31.6087186412       17.0642910397       29.7753009858  TIP3      2492            0.0000000000
     32391      2692  TIP3      H1            -31.7530919063       16.1046090571       29.7006804270  TIP3      2492            0.0000000000
     32392      2692  TIP3      H2            -32.4851627132       17.3751493757       30.0838920186  TIP3      2492            0.0000000000
     32393      2693  TIP3      OH2           -26.6288912798       32.4474956681       27.5157149768  TIP3      2493            0.0000000000
     32394      2693  TIP3      H1            -26.1866296672       31.7327183405       27.0182780010  TIP3      2493            0.0000000000
     32395      2693  TIP3      H2            -26.1932577481       33.2424807784       27.1299844497  TIP3      2493            0.0000000000
     32396      2694  TIP3      OH2           -25.3742739180       30.3577206607       25.9887923832  TIP3      2494            0.0000000000
     32397      2694  TIP3      H1            -25.7598023229       29.6464534501       25.4626254759  TIP3      2494            0.0000000000
     32398      2694  TIP3      H2            -25.3761125170       29.9144218482       26.8620075115  TIP3      2494            0.0000000000
     32399      2695  TIP3      OH2           -23.8061282679       28.9705007587       34.5246228806  TIP3      2495            0.0000000000
     32400      2695  TIP3      H1            -23.6587900816       28.3165139757       33.8053979703  TIP3      2495            0.0000000000
     32401      2695  TIP3      H2            -23.6145566448       29.8130168932       34.0775026295  TIP3      2495            0.0000000000
     32402      2696  TIP3      OH2           -29.3017046598       25.8586225974       24.2911213220  TIP3      2496            0.0000000000
     32403      2696  TIP3      H1            -30.0106689128       26.4061387794       23.9075386259  TIP3      2496            0.0000000000
     32404      2696  TIP3      H2            -28.6395390725       25.9741907307       23.5903268549  TIP3      2496            0.0000000000
     32405      2697  TIP3      OH2           -29.2531115817       24.3549080459       21.3478734036  TIP3      2497            0.0000000000
     32406      2697  TIP3      H1            -28.5364898317       24.3674424630       21.9892120115  TIP3      2497            0.0000000000
     32407      2697  TIP3      H2            -28.9985348489       23.7089665693       20.7109903072  TIP3      2497            0.0000000000
     32408      2698  TIP3      OH2           -21.9426007979       25.2632470790       32.5427638414  TIP3      2498            0.0000000000
     32409      2698  TIP3      H1            -22.5553803749       26.0213415207       32.6100866935  TIP3      2498            0.0000000000
     32410      2698  TIP3      H2            -21.4217422453       25.5148429487       31.7598827546  TIP3      2498            0.0000000000
     32411      2699  TIP3      OH2           -25.8536734023       26.0874793503       25.2029361438  TIP3      2499            0.0000000000
     32412      2699  TIP3      H1            -26.6073143465       26.3207742816       25.7935251954  TIP3      2499            0.0000000000
     32413      2699  TIP3      H2            -25.3772776407       25.4147129117       25.7167718276  TIP3      2499            0.0000000000
     32414      2700  TIP3      OH2           -25.9267308285       24.2356364355       34.3328293755  TIP3      2500            0.0000000000
     32415      2700  TIP3      H1            -25.9243073269       25.0542736118       34.8550839794  TIP3      2500            0.0000000000
     32416      2700  TIP3      H2            -26.5564698866       24.5262483473       33.6411091166  TIP3      2500            0.0000000000
     32417      2701  TIP3      OH2           -34.2601834241       26.7335935606       27.1504064610  TIP3      2501            0.0000000000
     32418      2701  TIP3      H1            -34.5741760638       26.3535780627       26.2893595137  TIP3      2501            0.0000000000
     32419      2701  TIP3      H2            -33.6277774095       26.0457392530       27.4575791568  TIP3      2501            0.0000000000
     32420      2702  TIP3      OH2           -32.9413303329       30.1161467963       29.8215776943  TIP3      2502            0.0000000000
     32421      2702  TIP3      H1            -32.9419723307       29.6037291308       28.9992641738  TIP3      2502            0.0000000000
     32422      2702  TIP3      H2            -32.1465837083       29.7575400772       30.2585011721  TIP3      2502            0.0000000000
     32423      2703  TIP3      OH2           -33.9102697746       25.4668022293       30.7774222583  TIP3      2503            0.0000000000
     32424      2703  TIP3      H1            -33.3627728377       25.5780991268       29.9781079670  TIP3      2503            0.0000000000
     32425      2703  TIP3      H2            -33.5503538309       26.1447146647       31.3908907594  TIP3      2503            0.0000000000
     32426      2704  TIP3      OH2           -27.5069742140       31.0537640093       31.4921132008  TIP3      2504            0.0000000000
     32427      2704  TIP3      H1            -27.7849554621       31.6849602956       32.1618895669  TIP3      2504            0.0000000000
     32428      2704  TIP3      H2            -27.7538967716       30.1978242302       31.9141714015  TIP3      2504            0.0000000000
     32429      2705  TIP3      OH2           -32.9678811382       29.9131315040       35.4793353508  TIP3      2505            0.0000000000
     32430      2705  TIP3      H1            -33.3739129061       30.6623007512       35.9598352382  TIP3      2505            0.0000000000
     32431      2705  TIP3      H2            -33.6370554428       29.7069038002       34.7843541578  TIP3      2505            0.0000000000
     32432      2706  TIP3      OH2           -26.9450248977       25.2192421964       22.8478350831  TIP3      2506            0.0000000000
     32433      2706  TIP3      H1            -26.4537241859       25.4519366809       23.6774558978  TIP3      2506            0.0000000000
     32434      2706  TIP3      H2            -26.5711125678       25.7962758107       22.1550872584  TIP3      2506            0.0000000000
     32435      2707  TIP3      OH2           -35.9374625480       26.1530906609       34.6178897656  TIP3      2507            0.0000000000
     32436      2707  TIP3      H1            -35.9616727820       26.7696348125       35.3672434949  TIP3      2507            0.0000000000
     32437      2707  TIP3      H2            -36.9043200996       26.0832598848       34.4406808797  TIP3      2507            0.0000000000
     32438      2708  TIP3      OH2           -29.2606680168       31.9985195476       26.3203001557  TIP3      2508            0.0000000000
     32439      2708  TIP3      H1            -28.8520525644       32.2904363804       27.1469387396  TIP3      2508            0.0000000000
     32440      2708  TIP3      H2            -29.8419709700       32.7347701088       26.0995321326  TIP3      2508            0.0000000000
     32441      2709  TIP3      OH2           -34.7179606674       31.9297381379       36.2292715406  TIP3      2509            0.0000000000
     32442      2709  TIP3      H1            -34.7773447256       31.8405982859       35.2592789353  TIP3      2509            0.0000000000
     32443      2709  TIP3      H2            -35.6482308300       31.8199459051       36.4940937504  TIP3      2509            0.0000000000
     32444      2710  TIP3      OH2           -23.2892308882       16.9787138566       22.7698057907  TIP3      2510            0.0000000000
     32445      2710  TIP3      H1            -24.2337541166       17.1172098700       23.0029056347  TIP3      2510            0.0000000000
     32446      2710  TIP3      H2            -23.0677997219       17.8485724979       22.3691552977  TIP3      2510            0.0000000000
     32447      2711  TIP3      OH2           -35.2834665150       25.7965892752       24.7788263545  TIP3      2511            0.0000000000
     32448      2711  TIP3      H1            -35.5482123139       26.5352825855       24.1967758503  TIP3      2511            0.0000000000
     32449      2711  TIP3      H2            -35.9165911275       25.1117869317       24.5396422196  TIP3      2511            0.0000000000
     32450      2712  TIP3      OH2           -39.0157809008       28.1697259220       33.5270582095  TIP3      2512            0.0000000000
     32451      2712  TIP3      H1            -39.6214683131       28.1785205980       32.7679444667  TIP3      2512            0.0000000000
     32452      2712  TIP3      H2            -39.1441066721       27.2674285315       33.8334848850  TIP3      2512            0.0000000000
     32453      2713  TIP3      OH2           -38.9510742660       31.5408053032       30.1613616147  TIP3      2513            0.0000000000
     32454      2713  TIP3      H1            -38.3177021678       30.8743508170       30.4565360337  TIP3      2513            0.0000000000
     32455      2713  TIP3      H2            -39.4581129145       31.6919987536       30.9786487513  TIP3      2513            0.0000000000
     32456      2714  TIP3      OH2           -21.1794273072       31.6027449828       36.0792023510  TIP3      2514            0.0000000000
     32457      2714  TIP3      H1            -21.3342105751       30.6467730939       36.0946654939  TIP3      2514            0.0000000000
     32458      2714  TIP3      H2            -22.0401802949       31.8828683417       36.4791842162  TIP3      2514            0.0000000000
     32459      2715  TIP3      OH2           -30.2338876092       31.1608054393       34.9661043209  TIP3      2515            0.0000000000
     32460      2715  TIP3      H1            -30.1742827716       32.0029248227       35.4741743956  TIP3      2515            0.0000000000
     32461      2715  TIP3      H2            -31.1139292985       30.8118401480       35.2069418180  TIP3      2515            0.0000000000
     32462      2716  TIP3      OH2           -29.7637543456       34.8999658803       24.7552111404  TIP3      2516            0.0000000000
     32463      2716  TIP3      H1            -29.9482375796       34.8194928277       23.8231434546  TIP3      2516            0.0000000000
     32464      2716  TIP3      H2            -29.7952339111       35.8530627737       24.9558988099  TIP3      2516            0.0000000000
     32465      2717  TIP3      OH2           -36.1620796406       33.7951232605       26.5800558525  TIP3      2517            0.0000000000
     32466      2717  TIP3      H1            -35.9965272621       33.3658258760       27.4478479519  TIP3      2517            0.0000000000
     32467      2717  TIP3      H2            -36.9862532998       33.3577785003       26.3205432026  TIP3      2517            0.0000000000
     32468      2718  TIP3      OH2           -26.7868368210       34.0926925530       21.7453089226  TIP3      2518            0.0000000000
     32469      2718  TIP3      H1            -26.3030669802       33.3763935192       21.3232503382  TIP3      2518            0.0000000000
     32470      2718  TIP3      H2            -26.7152066117       33.8402518334       22.6841749532  TIP3      2518            0.0000000000
     32471      2719  TIP3      OH2           -27.0522814218       34.0418068797       24.5058421162  TIP3      2519            0.0000000000
     32472      2719  TIP3      H1            -28.0014255826       34.1400447787       24.7223376964  TIP3      2519            0.0000000000
     32473      2719  TIP3      H2            -26.7942617175       33.3346497340       25.1167362132  TIP3      2519            0.0000000000
     32474      2720  TIP3      OH2           -24.0406927420       23.0883691960       36.5728178467  TIP3      2520            0.0000000000
     32475      2720  TIP3      H1            -24.5177674161       23.5382034449       35.8562233435  TIP3      2520            0.0000000000
     32476      2720  TIP3      H2            -24.0568769533       22.1686311793       36.2679645358  TIP3      2520            0.0000000000
     32477      2721  TIP3      OH2           -36.9241925007       29.5335736645       34.5737563493  TIP3      2521            0.0000000000
     32478      2721  TIP3      H1            -36.7298176936       29.1370693431       35.4471252698  TIP3      2521            0.0000000000
     32479      2721  TIP3      H2            -37.7879607609       29.1166908080       34.3448091405  TIP3      2521            0.0000000000
     32480      2722  TIP3      OH2           -34.2076139909       17.9796861193       30.5256303219  TIP3      2522            0.0000000000
     32481      2722  TIP3      H1            -35.1161468394       17.8483584937       30.1633389489  TIP3      2522            0.0000000000
     32482      2722  TIP3      H2            -34.3546335549       18.8059023036       31.0119838314  TIP3      2522            0.0000000000
     32483      2723  TIP3      OH2           -29.5762846118       17.6358056236       33.8868965758  TIP3      2523            0.0000000000
     32484      2723  TIP3      H1            -29.1846982881       17.2138750501       34.6744374581  TIP3      2523            0.0000000000
     32485      2723  TIP3      H2            -30.5477976936       17.5226613450       34.0352107801  TIP3      2523            0.0000000000
     32486      2724  TIP3      OH2           -26.2889986742       21.4871933866       34.7916916878  TIP3      2524            0.0000000000
     32487      2724  TIP3      H1            -26.8554373454       21.2707906454       35.5714285872  TIP3      2524            0.0000000000
     32488      2724  TIP3      H2            -26.4748895241       22.4140102137       34.5622331093  TIP3      2524            0.0000000000
     32489      2725  TIP3      OH2           -25.6069393821       26.4281563485       20.5783912970  TIP3      2525            0.0000000000
     32490      2725  TIP3      H1            -25.5486366099       26.0315852823       19.6962373662  TIP3      2525            0.0000000000
     32491      2725  TIP3      H2            -24.6917383908       26.5728211445       20.7504751105  TIP3      2525            0.0000000000
     32492      2726  TIP3      OH2           -34.0888834415       22.9307381787       31.7913461345  TIP3      2526            0.0000000000
     32493      2726  TIP3      H1            -34.8283743094       22.9262757163       32.4273301437  TIP3      2526            0.0000000000
     32494      2726  TIP3      H2            -34.1694721123       23.8412346411       31.4165229961  TIP3      2526            0.0000000000
     32495      2727  TIP3      OH2           -34.1445582291       23.0641158533       26.6624357029  TIP3      2527            0.0000000000
     32496      2727  TIP3      H1            -35.0807904626       22.8183420366       26.5145255991  TIP3      2527            0.0000000000
     32497      2727  TIP3      H2            -33.7693230151       22.7945836049       25.7996562712  TIP3      2527            0.0000000000
     32498      2728  TIP3      OH2           -28.6587951103       23.5160794198       25.3797096060  TIP3      2528            0.0000000000
     32499      2728  TIP3      H1            -29.0483014824       24.3762542673       25.0870454164  TIP3      2528            0.0000000000
     32500      2728  TIP3      H2            -27.9452579217       23.4212682023       24.7317644037  TIP3      2528            0.0000000000
     32501      2729  TIP3      OH2           -29.5855348485       23.7746360255       36.8515653653  TIP3      2529            0.0000000000
     32502      2729  TIP3      H1            -30.1097992886       22.9981636497       37.1621464198  TIP3      2529            0.0000000000
     32503      2729  TIP3      H2            -28.7472309811       23.6545757259       37.3281801403  TIP3      2529            0.0000000000
     32504      2730  TIP3      OH2           -27.6035928130       23.0595193374       28.2505105576  TIP3      2530            0.0000000000
     32505      2730  TIP3      H1            -27.8794378494       23.6222787968       27.5080922339  TIP3      2530            0.0000000000
     32506      2730  TIP3      H2            -27.5072833093       22.2074764069       27.7829145585  TIP3      2530            0.0000000000
     32507      2731  TIP3      OH2           -36.4405019826       23.1833010141       33.4642589866  TIP3      2531            0.0000000000
     32508      2731  TIP3      H1            -36.4522452482       23.6187865012       34.3334170883  TIP3      2531            0.0000000000
     32509      2731  TIP3      H2            -36.9399448192       22.3724099925       33.6580340729  TIP3      2531            0.0000000000
     32510      2732  TIP3      OH2           -39.7931854373       20.3319198532       27.4050072817  TIP3      2532            0.0000000000
     32511      2732  TIP3      H1            -39.1547154920       20.2125713231       28.1313809940  TIP3      2532            0.0000000000
     32512      2732  TIP3      H2            -39.3766838643       19.8321372982       26.6924664406  TIP3      2532            0.0000000000
     32513      2733  TIP3      OH2           -38.4109315628       21.1390858647       22.9852114279  TIP3      2533            0.0000000000
     32514      2733  TIP3      H1            -37.9766346055       21.6644132378       22.2586761883  TIP3      2533            0.0000000000
     32515      2733  TIP3      H2            -39.1134937121       21.7082730229       23.2760740817  TIP3      2533            0.0000000000
     32516      2734  TIP3      OH2           -28.4147313399       24.6375886970       32.8109850840  TIP3      2534            0.0000000000
     32517      2734  TIP3      H1            -28.0275429672       23.9536624908       32.2270438128  TIP3      2534            0.0000000000
     32518      2734  TIP3      H2            -28.8760241122       24.1091739238       33.4852940417  TIP3      2534            0.0000000000
     32519      2735  TIP3      OH2           -31.6176597905       20.6240811550       27.6653930500  TIP3      2535            0.0000000000
     32520      2735  TIP3      H1            -32.5549796093       20.6210372596       27.9583220411  TIP3      2535            0.0000000000
     32521      2735  TIP3      H2            -31.1267547851       20.4447339199       28.4816253663  TIP3      2535            0.0000000000
     32522      2736  TIP3      OH2           -36.8017182579       22.1488535127       26.5232945749  TIP3      2536            0.0000000000
     32523      2736  TIP3      H1            -37.6783213294       22.3144166600       26.1327054547  TIP3      2536            0.0000000000
     32524      2736  TIP3      H2            -36.5264327403       21.3103060934       26.0993448247  TIP3      2536            0.0000000000
     32525      2737  TIP3      OH2           -33.1801533736       22.2597764549       24.2213208155  TIP3      2537            0.0000000000
     32526      2737  TIP3      H1            -32.2035395003       22.2901897529       24.2717346335  TIP3      2537            0.0000000000
     32527      2737  TIP3      H2            -33.3995612547       22.8870919941       23.5054522040  TIP3      2537            0.0000000000
     32528      2738  TIP3      OH2           -27.1964923867       19.8534973913       30.8874979360  TIP3      2538            0.0000000000
     32529      2738  TIP3      H1            -27.8837424938       19.8990604919       31.5931663738  TIP3      2538            0.0000000000
     32530      2738  TIP3      H2            -27.7071648634       19.5951140810       30.1063948478  TIP3      2538            0.0000000000
     32531      2739  TIP3      OH2           -34.4587080815       23.3852739430       21.7041478506  TIP3      2539            0.0000000000
     32532      2739  TIP3      H1            -35.0138637699       23.0126252188       21.0139881969  TIP3      2539            0.0000000000
     32533      2739  TIP3      H2            -33.6217461497       23.5483055752       21.2503283989  TIP3      2539            0.0000000000
     32534      2740  TIP3      OH2           -23.9951549551       35.4667489866       37.2153669095  TIP3      2540            0.0000000000
     32535      2740  TIP3      H1            -23.7497130756       35.8864481840       36.3706283372  TIP3      2540            0.0000000000
     32536      2740  TIP3      H2            -23.3044091642       35.8569351727       37.7756385388  TIP3      2540            0.0000000000
     32537      2741  TIP3      OH2           -36.3083622104       27.9620935414       36.8039484120  TIP3      2541            0.0000000000
     32538      2741  TIP3      H1            -35.5708024610       28.1989402570       37.3973245755  TIP3      2541            0.0000000000
     32539      2741  TIP3      H2            -37.0744619453       28.0434091870       37.4041924612  TIP3      2541            0.0000000000
     32540      2742  TIP3      OH2           -30.3266106957       23.3719478770       29.5427524421  TIP3      2542            0.0000000000
     32541      2742  TIP3      H1            -29.7225139208       22.8413436892       29.0102259819  TIP3      2542            0.0000000000
     32542      2742  TIP3      H2            -30.4676765857       22.8234356656       30.3265991162  TIP3      2542            0.0000000000
     32543      2743  TIP3      OH2           -35.3066554435       19.5217713726       26.0032602363  TIP3      2543            0.0000000000
     32544      2743  TIP3      H1            -35.6397759997       18.6055377692       25.9777407861  TIP3      2543            0.0000000000
     32545      2743  TIP3      H2            -34.5356665428       19.4461707647       25.4249387325  TIP3      2543            0.0000000000
     32546      2744  TIP3      OH2           -31.6786964849       21.6951414189       31.9610283189  TIP3      2544            0.0000000000
     32547      2744  TIP3      H1            -32.5073089297       22.2182234724       32.0434484940  TIP3      2544            0.0000000000
     32548      2744  TIP3      H2            -31.1282951359       22.0536022838       32.6800808909  TIP3      2544            0.0000000000
     32549      2745  TIP3      OH2           -23.9064692652       27.1291925898       32.4604948898  TIP3      2545            0.0000000000
     32550      2745  TIP3      H1            -23.3446973077       27.6104269928       31.8252521990  TIP3      2545            0.0000000000
     32551      2745  TIP3      H2            -24.7664657576       27.1693573661       31.9955193498  TIP3      2545            0.0000000000
     32552      2746  TIP3      OH2           -29.6019810305       28.1953050522       34.9014680528  TIP3      2546            0.0000000000
     32553      2746  TIP3      H1            -29.9498331726       27.7639435026       35.6890090280  TIP3      2546            0.0000000000
     32554      2746  TIP3      H2            -29.8610108582       29.1158650255       35.0089745946  TIP3      2546            0.0000000000
     32555      2747  TIP3      OH2           -26.4947667926       22.5871764663       23.4456755873  TIP3      2547            0.0000000000
     32556      2747  TIP3      H1            -25.6205070321       22.5126706438       23.8762334107  TIP3      2547            0.0000000000
     32557      2747  TIP3      H2            -26.4530664752       23.4454217122       22.9879774183  TIP3      2547            0.0000000000
     32558      2748  TIP3      OH2           -35.9764198914       27.3234810983       29.4532934222  TIP3      2548            0.0000000000
     32559      2748  TIP3      H1            -35.3027102716       27.2420684156       28.7502378534  TIP3      2548            0.0000000000
     32560      2748  TIP3      H2            -35.9181663123       26.4603176438       29.8969281125  TIP3      2548            0.0000000000
     32561      2749  TIP3      OH2           -38.4565728394       25.3395131061       34.6108202488  TIP3      2549            0.0000000000
     32562      2749  TIP3      H1            -38.6626357209       25.2633268541       35.5650925510  TIP3      2549            0.0000000000
     32563      2749  TIP3      H2            -39.3895667983       25.2494090502       34.3064643938  TIP3      2549            0.0000000000
     32564      2750  TIP3      OH2           -31.9812524815       25.2867417618       36.8903216022  TIP3      2550            0.0000000000
     32565      2750  TIP3      H1            -32.3034918086       24.9724333705       36.0327117494  TIP3      2550            0.0000000000
     32566      2750  TIP3      H2            -31.0609042356       24.9562289594       36.8901010266  TIP3      2550            0.0000000000
     32567      2751  TIP3      OH2           -27.2952839390       30.6171976689       34.8496438716  TIP3      2551            0.0000000000
     32568      2751  TIP3      H1            -28.2206433996       30.7940598198       34.6153859465  TIP3      2551            0.0000000000
     32569      2751  TIP3      H2            -27.3288033488       30.9110814182       35.7801639090  TIP3      2551            0.0000000000
     32570      2752  TIP3      OH2           -21.5938946364       22.8200018794       23.2136154083  TIP3      2552            0.0000000000
     32571      2752  TIP3      H1            -22.1994347459       22.4841928901       22.5337410624  TIP3      2552            0.0000000000
     32572      2752  TIP3      H2            -21.5741033496       23.7628889270       22.9597892100  TIP3      2552            0.0000000000
     32573      2753  TIP3      OH2           -21.6230208215       28.6765540417       36.0295465110  TIP3      2553            0.0000000000
     32574      2753  TIP3      H1            -22.5364545461       28.8682902144       35.6870125468  TIP3      2553            0.0000000000
     32575      2753  TIP3      H2            -21.1059611252       28.5870623295       35.2096822737  TIP3      2553            0.0000000000
     32576      2754  TIP3      OH2           -23.3870015649       31.6226597634       23.5838003473  TIP3      2554            0.0000000000
     32577      2754  TIP3      H1            -23.6631470302       30.7894797377       23.9831855170  TIP3      2554            0.0000000000
     32578      2754  TIP3      H2            -22.9954252151       31.4598447992       22.7280600424  TIP3      2554            0.0000000000
     32579      2755  TIP3      OH2           -26.1275976669       26.4425644217       30.7346006994  TIP3      2555            0.0000000000
     32580      2755  TIP3      H1            -27.0683342384       26.2361555357       30.6272864410  TIP3      2555            0.0000000000
     32581      2755  TIP3      H2            -25.7016036534       25.6794388133       30.3000198387  TIP3      2555            0.0000000000
     32582      2756  TIP3      OH2           -33.6322845886       30.7938495525       26.8785316730  TIP3      2556            0.0000000000
     32583      2756  TIP3      H1            -33.0940602080       31.5466706240       26.5766417919  TIP3      2556            0.0000000000
     32584      2756  TIP3      H2            -34.5094953005       31.0174475357       26.5396291878  TIP3      2556            0.0000000000
     32585      2757  TIP3      OH2           -37.8429934112       25.6008513183       21.4559611253  TIP3      2557            0.0000000000
     32586      2757  TIP3      H1            -37.2506230410       26.2855768702       21.8079883260  TIP3      2557            0.0000000000
     32587      2757  TIP3      H2            -38.7132584641       25.9739670025       21.6436790908  TIP3      2557            0.0000000000
     32588      2758  TIP3      OH2           -32.1657447339       28.4549787720       26.4550636692  TIP3      2558            0.0000000000
     32589      2758  TIP3      H1            -32.5187515188       29.3608962659       26.4323366735  TIP3      2558            0.0000000000
     32590      2758  TIP3      H2            -32.9216760030       27.9391040788       26.7803641473  TIP3      2558            0.0000000000
     32591      2759  TIP3      OH2           -31.7571047880       32.6242102987       32.7733016794  TIP3      2559            0.0000000000
     32592      2759  TIP3      H1            -31.2964818697       33.4276197503       32.4810045230  TIP3      2559            0.0000000000
     32593      2759  TIP3      H2            -31.1258213544       32.2773187954       33.4304137313  TIP3      2559            0.0000000000
     32594      2760  TIP3      OH2           -33.5080545011       33.4345712985       25.9289617188  TIP3      2560            0.0000000000
     32595      2760  TIP3      H1            -34.4769147660       33.5555482159       26.0336150760  TIP3      2560            0.0000000000
     32596      2760  TIP3      H2            -33.1666147772       34.2855406909       26.2516491681  TIP3      2560            0.0000000000
     32597      2761  TIP3      OH2           -28.2289061296       28.6149542775       32.3849001767  TIP3      2561            0.0000000000
     32598      2761  TIP3      H1            -28.5473986107       28.4260138260       33.2922873604  TIP3      2561            0.0000000000
     32599      2761  TIP3      H2            -27.5848078603       27.9080823376       32.2186773530  TIP3      2561            0.0000000000
     32600      2762  TIP3      OH2           -25.4054749481       33.1836597634       34.8669910822  TIP3      2562            0.0000000000
     32601      2762  TIP3      H1            -26.1027736591       32.6986436342       34.3915582319  TIP3      2562            0.0000000000
     32602      2762  TIP3      H2            -25.2258990512       33.8960606782       34.2190908914  TIP3      2562            0.0000000000
     32603      2763  TIP3      OH2           -21.3233396375       34.1184173297       21.7934243309  TIP3      2563            0.0000000000
     32604      2763  TIP3      H1            -20.7354401805       34.7762614555       21.4536830983  TIP3      2563            0.0000000000
     32605      2763  TIP3      H2            -22.1353232688       34.6408259814       21.9999230136  TIP3      2563            0.0000000000
     32606      2764  TIP3      OH2           -37.3211000097       20.4971166139       34.2641103785  TIP3      2564            0.0000000000
     32607      2764  TIP3      H1            -38.2285955798       20.8307944119       34.2633701898  TIP3      2564            0.0000000000
     32608      2764  TIP3      H2            -37.4318049093       19.6251838747       34.6762213841  TIP3      2564            0.0000000000
     32609      2765  TIP3      OH2           -37.7414794197       32.2382275694       32.6944453056  TIP3      2565            0.0000000000
     32610      2765  TIP3      H1            -37.4247662575       31.3279540680       32.6921371564  TIP3      2565            0.0000000000
     32611      2765  TIP3      H2            -37.4861565577       32.5295642640       33.5713171548  TIP3      2565            0.0000000000
     32612      2766  TIP3      OH2           -36.5447544785       27.5365196756       22.8839305552  TIP3      2566            0.0000000000
     32613      2766  TIP3      H1            -37.2073489071       27.9488367705       23.4742367845  TIP3      2566            0.0000000000
     32614      2766  TIP3      H2            -35.9936833595       28.3133233741       22.6542448860  TIP3      2566            0.0000000000
     32615      2767  TIP3      OH2           -28.6129151153       20.2284251436       33.2312575113  TIP3      2567            0.0000000000
     32616      2767  TIP3      H1            -27.8969209296       20.2888020943       33.8726431020  TIP3      2567            0.0000000000
     32617      2767  TIP3      H2            -28.9961665858       19.3521939655       33.4352992000  TIP3      2567            0.0000000000
     32618      2768  TIP3      OH2           -27.7880460489       19.7849701695       24.2808562935  TIP3      2568            0.0000000000
     32619      2768  TIP3      H1            -27.6615074733       20.3535413852       23.5168274667  TIP3      2568            0.0000000000
     32620      2768  TIP3      H2            -27.3010481306       20.2593906904       24.9696867045  TIP3      2568            0.0000000000
     32621      2769  TIP3      OH2           -30.6532131953       21.5555079137       25.1223174836  TIP3      2569            0.0000000000
     32622      2769  TIP3      H1            -29.8683432327       22.1349060052       25.1762070052  TIP3      2569            0.0000000000
     32623      2769  TIP3      H2            -30.9249428687       21.4267661982       26.0495205971  TIP3      2569            0.0000000000
     32624      2770  TIP3      OH2           -30.0864474831       22.5741154485       34.3294247653  TIP3      2570            0.0000000000
     32625      2770  TIP3      H1            -30.0109412040       23.1316430476       35.1260097034  TIP3      2570            0.0000000000
     32626      2770  TIP3      H2            -29.4222875844       21.8799696867       34.4217270510  TIP3      2570            0.0000000000
     32627      2771  TIP3      OH2           -29.7882117836       18.6078514601       26.0230360277  TIP3      2571            0.0000000000
     32628      2771  TIP3      H1            -30.1267518770       19.2615181981       26.6576100039  TIP3      2571            0.0000000000
     32629      2771  TIP3      H2            -29.1053766134       19.1583620437       25.5743612207  TIP3      2571            0.0000000000
     32630      2772  TIP3      OH2           -32.8523742678       33.0316581444       23.1484937788  TIP3      2572            0.0000000000
     32631      2772  TIP3      H1            -32.6647575933       33.8319651561       22.6162868363  TIP3      2572            0.0000000000
     32632      2772  TIP3      H2            -33.0573150969       33.3619612707       24.0389627261  TIP3      2572            0.0000000000
     32633      2773  TIP3      OH2           -34.1405248270       19.7112387812       22.7771774990  TIP3      2573            0.0000000000
     32634      2773  TIP3      H1            -34.1694896245       20.6291958025       23.0822803832  TIP3      2573            0.0000000000
     32635      2773  TIP3      H2            -33.1992791119       19.4961284110       22.9371890717  TIP3      2573            0.0000000000
     32636      2774  TIP3      OH2           -23.9064643803       20.4485477233       35.1713022776  TIP3      2574            0.0000000000
     32637      2774  TIP3      H1            -24.8355608930       20.7600902887       35.0419837722  TIP3      2574            0.0000000000
     32638      2774  TIP3      H2            -23.6070931458       20.4294005384       34.2468814845  TIP3      2574            0.0000000000
     32639      2775  TIP3      OH2           -25.2937989474       24.2269545793       29.1880645878  TIP3      2575            0.0000000000
     32640      2775  TIP3      H1            -26.1160790748       23.7847759049       28.9024643905  TIP3      2575            0.0000000000
     32641      2775  TIP3      H2            -24.8196286280       23.5380121593       29.7048615049  TIP3      2575            0.0000000000
     32642      2776  TIP3      OH2           -35.7435327963       30.0773447338       21.8736928361  TIP3      2576            0.0000000000
     32643      2776  TIP3      H1            -35.1972315056       30.8524473749       22.0558717913  TIP3      2576            0.0000000000
     32644      2776  TIP3      H2            -35.3595200949       29.7464573190       21.0331212343  TIP3      2576            0.0000000000
     32645      2777  TIP3      OH2           -37.6394714991       22.8023789041       21.0323726992  TIP3      2577            0.0000000000
     32646      2777  TIP3      H1            -37.5618840826       23.7841214543       21.0474680889  TIP3      2577            0.0000000000
     32647      2777  TIP3      H2            -38.4053223321       22.6781905974       20.4432840487  TIP3      2577            0.0000000000
     32648      2778  TIP3      OH2           -24.2152386721       33.4587767822       30.8538321658  TIP3      2578            0.0000000000
     32649      2778  TIP3      H1            -24.3198106220       34.1542873263       30.1687789283  TIP3      2578            0.0000000000
     32650      2778  TIP3      H2            -23.2559941002       33.5362961108       31.0294237760  TIP3      2578            0.0000000000
     32651      2779  TIP3      OH2           -36.6930067503       17.6033550238       29.6455030213  TIP3      2579            0.0000000000
     32652      2779  TIP3      H1            -36.9312070832       17.6164996261       28.6930980610  TIP3      2579            0.0000000000
     32653      2779  TIP3      H2            -37.1672307041       16.7821982902       29.9076762947  TIP3      2579            0.0000000000
     32654      2780  TIP3      OH2           -37.7701495314       31.5483271763       25.8335338838  TIP3      2580            0.0000000000
     32655      2780  TIP3      H1            -38.6282397909       31.9843022174       25.7400083469  TIP3      2580            0.0000000000
     32656      2780  TIP3      H2            -37.2898093308       31.9981923819       25.1230965089  TIP3      2580            0.0000000000
     32657      2781  TIP3      OH2           -38.5295131254       34.1855734872       37.0864603819  TIP3      2581            0.0000000000
     32658      2781  TIP3      H1            -37.9496788792       33.9643144279       37.8348615574  TIP3      2581            0.0000000000
     32659      2781  TIP3      H2            -38.9920413717       33.3587436876       36.9084937978  TIP3      2581            0.0000000000
     32660      2782  TIP3      OH2           -33.9043926179       33.1042960594       38.7036079292  TIP3      2582            0.0000000000
     32661      2782  TIP3      H1            -33.1573375211       32.5917711112       39.0337946462  TIP3      2582            0.0000000000
     32662      2782  TIP3      H2            -33.9433480846       32.8146955174       37.7706927767  TIP3      2582            0.0000000000
     32663      2783  TIP3      OH2           -27.3959737705       31.4892834733       37.4440799394  TIP3      2583            0.0000000000
     32664      2783  TIP3      H1            -27.7095314496       30.6013368618       37.7181289404  TIP3      2583            0.0000000000
     32665      2783  TIP3      H2            -26.6257685906       31.6069844734       38.0355679019  TIP3      2583            0.0000000000
     32666      2784  TIP3      OH2           -38.5898923837       27.8962952323       38.1766821880  TIP3      2584            0.0000000000
     32667      2784  TIP3      H1            -38.4506894791       27.0007160597       37.8064623314  TIP3      2584            0.0000000000
     32668      2784  TIP3      H2            -39.0727411945       28.3186192427       37.4586260294  TIP3      2584            0.0000000000
     32669      2785  TIP3      OH2           -31.9476742337       27.9547880135       37.4618425453  TIP3      2585            0.0000000000
     32670      2785  TIP3      H1            -32.2944671851       28.2611154997       36.6006765518  TIP3      2585            0.0000000000
     32671      2785  TIP3      H2            -31.8784708586       26.9743917393       37.3577039379  TIP3      2585            0.0000000000
     32672      2786  TIP3      OH2           -26.2555481885       27.8046743673       34.8592923615  TIP3      2586            0.0000000000
     32673      2786  TIP3      H1            -25.4668280133       28.3863027994       34.7979612685  TIP3      2586            0.0000000000
     32674      2786  TIP3      H2            -26.9553790061       28.4733971441       34.8933620302  TIP3      2586            0.0000000000
     32675      2787  TIP3      OH2           -37.8011096224       25.1994010551       37.4445462983  TIP3      2587            0.0000000000
     32676      2787  TIP3      H1            -37.3362357833       24.3507600213       37.3468684853  TIP3      2587            0.0000000000
     32677      2787  TIP3      H2            -37.9917011665       25.1679319989       38.3937782422  TIP3      2587            0.0000000000
     32678      2788  TIP3      OH2           -33.8545944853       24.1316591523       34.8198882283  TIP3      2588            0.0000000000
     32679      2788  TIP3      H1            -34.4761881327       24.8365702213       35.0735170578  TIP3      2588            0.0000000000
     32680      2788  TIP3      H2            -33.4546432688       24.4992956929       34.0113315344  TIP3      2588            0.0000000000
     32681      2789  TIP3      OH2           -28.7730456659       26.6973669464       38.1538316345  TIP3      2589            0.0000000000
     32682      2789  TIP3      H1            -27.8165986473       26.6830292983       38.0280418042  TIP3      2589            0.0000000000
     32683      2789  TIP3      H2            -28.9449732759       25.9295931231       38.7221498062  TIP3      2589            0.0000000000
     32684      2790  TIP3      OH2           -33.4268074252       21.5158688725       35.8687002732  TIP3      2590            0.0000000000
     32685      2790  TIP3      H1            -33.3258066265       20.8010150050       35.2119101661  TIP3      2590            0.0000000000
     32686      2790  TIP3      H2            -33.5156226172       22.3219741062       35.3202347494  TIP3      2590            0.0000000000
     32687      2791  TIP3      OH2           -33.0372355356       19.8859721650       33.4264092160  TIP3      2591            0.0000000000
     32688      2791  TIP3      H1            -32.5300315136       20.3538298524       32.7205795308  TIP3      2591            0.0000000000
     32689      2791  TIP3      H2            -33.9321206307       19.8113644212       33.0225415531  TIP3      2591            0.0000000000
     32690      2792  TIP3      OH2           -31.4986334850       25.3804613529       33.6693929579  TIP3      2592            0.0000000000
     32691      2792  TIP3      H1            -30.7455672596       25.2132075719       33.0974624114  TIP3      2592            0.0000000000
     32692      2792  TIP3      H2            -31.8665456010       26.2115093944       33.3310752245  TIP3      2592            0.0000000000
     32693      2793  TIP3      OH2           -27.1051158861       23.1271518389       38.6280551045  TIP3      2593            0.0000000000
     32694      2793  TIP3      H1            -26.8688389461       22.1926229000       38.5391397146  TIP3      2593            0.0000000000
     32695      2793  TIP3      H2            -26.2414503855       23.5713253762       38.6640370822  TIP3      2593            0.0000000000
     32696      2794  TIP3      OH2           -25.7633391346       25.9216921833       36.7978147115  TIP3      2594            0.0000000000
     32697      2794  TIP3      H1            -26.0141359025       26.6431098352       36.1803400056  TIP3      2594            0.0000000000
     32698      2794  TIP3      H2            -24.8043021590       25.8905260810       36.6083481428  TIP3      2594            0.0000000000
     32699      2795  TIP3      OH2           -34.9921639837       22.7731685406       37.7890537443  TIP3      2595            0.0000000000
     32700      2795  TIP3      H1            -35.7505509788       22.1808258462       37.6219126670  TIP3      2595            0.0000000000
     32701      2795  TIP3      H2            -34.3449750614       22.4023383734       37.1618042887  TIP3      2595            0.0000000000
     32702      2796  TIP3      OH2           -32.2514567356       17.3258717228       33.8136061915  TIP3      2596            0.0000000000
     32703      2796  TIP3      H1            -32.4370835055       18.2876867747       33.7143597610  TIP3      2596            0.0000000000
     32704      2796  TIP3      H2            -32.9986649864       16.9549148111       33.3123668811  TIP3      2596            0.0000000000
     32705      2797  TIP3      OH2           -30.9723359305       21.6512009886       37.4447350311  TIP3      2597            0.0000000000
     32706      2797  TIP3      H1            -31.2947793756       21.4197427301       38.3386304276  TIP3      2597            0.0000000000
     32707      2797  TIP3      H2            -31.7580243760       21.4510408049       36.9030623260  TIP3      2597            0.0000000000
     32708      2798  TIP3      OH2           -28.2571941010       20.7983977233       36.5359103668  TIP3      2598            0.0000000000
     32709      2798  TIP3      H1            -29.2226178286       20.8513068605       36.6430367943  TIP3      2598            0.0000000000
     32710      2798  TIP3      H2            -27.9943484783       20.1561612572       37.2233622644  TIP3      2598            0.0000000000
     32711      2799  TIP3      OH2           -26.6765570331       19.4156384280       38.4318002187  TIP3      2599            0.0000000000
     32712      2799  TIP3      H1            -26.7235792645       18.4375451431       38.4632675168  TIP3      2599            0.0000000000
     32713      2799  TIP3      H2            -26.9238831107       19.7081425094       39.3314721244  TIP3      2599            0.0000000000
     32714      2800  TIP3      OH2           -36.7852226994       20.6720630012       37.5644868195  TIP3      2600            0.0000000000
     32715      2800  TIP3      H1            -36.6417700137       19.9298681340       36.9489830273  TIP3      2600            0.0000000000
     32716      2800  TIP3      H2            -36.9823122803       20.2281146978       38.4122167322  TIP3      2600            0.0000000000
     32717      2801  TIP3      OH2           -32.0346438265       16.7187416427       36.5148743877  TIP3      2601            0.0000000000
     32718      2801  TIP3      H1            -31.3557727028       16.0134448969       36.4987347242  TIP3      2601            0.0000000000
     32719      2801  TIP3      H2            -32.1503432092       16.8584553006       35.5543690794  TIP3      2601            0.0000000000
     32720      2802  TIP3      OH2           -31.6733811624       18.3297100649       38.6336054087  TIP3      2602            0.0000000000
     32721      2802  TIP3      H1            -31.8468191401       17.8242907464       37.8007541356  TIP3      2602            0.0000000000
     32722      2802  TIP3      H2            -32.2718744133       19.0951287244       38.5320347733  TIP3      2602            0.0000000000
     32723      2803  TIP3      OH2           -32.1343824664       35.2381432794       21.7930103902  TIP3      2603            0.0000000000
     32724      2803  TIP3      H1            -31.1997027787       35.3659605894       21.8852716736  TIP3      2603            0.0000000000
     32725      2803  TIP3      H2            -32.4260641987       35.8604943084       21.1173953660  TIP3      2603            0.0000000000
     32726      2804  TIP3      OH2           -38.2600517450       29.8383626419       21.1323357470  TIP3      2604            0.0000000000
     32727      2804  TIP3      H1            -37.3221652708       29.8548876160       21.4102601872  TIP3      2604            0.0000000000
     32728      2804  TIP3      H2            -38.3368486143       29.1191718016       20.4924004776  TIP3      2604            0.0000000000
     32729      2805  TIP3      OH2            40.2847761056       35.3984101864       26.0275482629  TIP3      2605            0.0000000000
     32730      2805  TIP3      H1             39.4857463672       34.9395287574       25.7156911468  TIP3      2605            0.0000000000
     32731      2805  TIP3      H2             40.4053918220       34.7611451793       26.7628235155  TIP3      2605            0.0000000000
     32732      2806  TIP3      OH2           -38.9356045995       33.3596343587       28.2013014557  TIP3      2606            0.0000000000
     32733      2806  TIP3      H1            -39.2431649877       32.4442519216       28.3753937580  TIP3      2606            0.0000000000
     32734      2806  TIP3      H2            -38.6920205235       33.6479468431       29.1040869321  TIP3      2606            0.0000000000
     32735      2807  TIP3      OH2           -21.4781088717       34.1069695408       31.0511908983  TIP3      2607            0.0000000000
     32736      2807  TIP3      H1            -21.4849057811       34.3064262155       32.0032445275  TIP3      2607            0.0000000000
     32737      2807  TIP3      H2            -20.8199742060       34.7336729540       30.7334856831  TIP3      2607            0.0000000000
     32738      2808  TIP3      OH2           -21.8703309501       33.6952602627       33.9590065943  TIP3      2608            0.0000000000
     32739      2808  TIP3      H1            -22.4239211044       32.9614072864       33.6156226394  TIP3      2608            0.0000000000
     32740      2808  TIP3      H2            -21.4747315317       33.2766446742       34.7345773453  TIP3      2608            0.0000000000
     32741      2809  TIP3      OH2           -23.4921136623       29.4489138071       38.6654858594  TIP3      2609            0.0000000000
     32742      2809  TIP3      H1            -24.4005312830       29.4249217859       39.0286332368  TIP3      2609            0.0000000000
     32743      2809  TIP3      H2            -23.1212147942       30.2575020819       39.0747323320  TIP3      2609            0.0000000000
     32744      2810  TIP3      OH2           -22.1683967996       27.7458059819       24.0592175461  TIP3      2610            0.0000000000
     32745      2810  TIP3      H1            -21.3056389698       28.1495078688       24.2756895256  TIP3      2610            0.0000000000
     32746      2810  TIP3      H2            -22.2030720672       27.0612253828       24.7683456256  TIP3      2610            0.0000000000
     32747      2811  TIP3      OH2           -21.8008125903       25.8540900637       25.9601802291  TIP3      2611            0.0000000000
     32748      2811  TIP3      H1            -22.5588286831       25.3655868426       26.3545239782  TIP3      2611            0.0000000000
     32749      2811  TIP3      H2            -21.2150151019       25.9931693188       26.7309915100  TIP3      2611            0.0000000000
     32750      2812  TIP3      OH2           -22.0415622181       28.5415637208       30.9901813168  TIP3      2612            0.0000000000
     32751      2812  TIP3      H1            -21.2504044687       28.1607557965       30.5733767460  TIP3      2612            0.0000000000
     32752      2812  TIP3      H2            -21.9295189235       29.4929065359       30.7858791537  TIP3      2612            0.0000000000
     32753      2813  TIP3      OH2           -23.4673932807       31.4659284363       33.2356632069  TIP3      2613            0.0000000000
     32754      2813  TIP3      H1            -24.1681252417       31.8011027079       33.8199157286  TIP3      2613            0.0000000000
     32755      2813  TIP3      H2            -24.0226537521       31.0590330901       32.5327508084  TIP3      2613            0.0000000000
     32756      2814  TIP3      OH2           -21.4195319497       25.7150531566       22.3211580411  TIP3      2614            0.0000000000
     32757      2814  TIP3      H1            -22.1084150025       25.9356113305       21.6805821848  TIP3      2614            0.0000000000
     32758      2814  TIP3      H2            -21.5581868932       26.3779758853       23.0253403792  TIP3      2614            0.0000000000
     32759      2815  TIP3      OH2           -23.9855051788       24.3252830303       26.5368377254  TIP3      2615            0.0000000000
     32760      2815  TIP3      H1            -24.1514436361       23.3717145048       26.5166715892  TIP3      2615            0.0000000000
     32761      2815  TIP3      H2            -24.3239650557       24.5541728346       27.4221176710  TIP3      2615            0.0000000000
     32762      2816  TIP3      OH2           -38.9012275178       26.2655270358       30.7265845846  TIP3      2616            0.0000000000
     32763      2816  TIP3      H1            -38.7474687215       26.2683007455       29.7534749188  TIP3      2616            0.0000000000
     32764      2816  TIP3      H2            -37.9777641624       26.2310782809       31.0512211811  TIP3      2616            0.0000000000
     32765      2817  TIP3      OH2           -23.1267641551       26.3025476633       36.2388206930  TIP3      2617            0.0000000000
     32766      2817  TIP3      H1            -22.5228156166       25.5407616149       36.3738492663  TIP3      2617            0.0000000000
     32767      2817  TIP3      H2            -22.5228267660       27.0719960630       36.2437057006  TIP3      2617            0.0000000000
     32768      2818  TIP3      OH2           -21.6303952492       24.1815737644       36.8844215206  TIP3      2618            0.0000000000
     32769      2818  TIP3      H1            -22.5142610501       23.7798436419       36.7373082039  TIP3      2618            0.0000000000
     32770      2818  TIP3      H2            -21.0633428054       23.3949980334       36.8157485409  TIP3      2618            0.0000000000
     32771      2819  TIP3      OH2           -24.3308506985       21.9023292936       25.0081171350  TIP3      2619            0.0000000000
     32772      2819  TIP3      H1            -24.0263709293       20.9696213925       25.0898685030  TIP3      2619            0.0000000000
     32773      2819  TIP3      H2            -23.5379242877       22.3073960948       24.6299800584  TIP3      2619            0.0000000000
     32774      2820  TIP3      OH2           -23.6891507839       22.4559359415       30.4543993426  TIP3      2620            0.0000000000
     32775      2820  TIP3      H1            -22.7288621965       22.6871996042       30.4402155488  TIP3      2620            0.0000000000
     32776      2820  TIP3      H2            -23.8763174673       22.5977437740       31.3937505706  TIP3      2620            0.0000000000
     32777      2821  TIP3      OH2           -23.6173239225       23.1808660054       33.2448614294  TIP3      2621            0.0000000000
     32778      2821  TIP3      H1            -24.5057138954       23.4675723112       33.5487543544  TIP3      2621            0.0000000000
     32779      2821  TIP3      H2            -23.1877680740       24.0396198713       33.0097644177  TIP3      2621            0.0000000000
     32780      2822  TIP3      OH2           -39.2350996214       21.7667908761       36.5851479042  TIP3      2622            0.0000000000
     32781      2822  TIP3      H1            -38.3504906949       21.5515737893       36.9267479625  TIP3      2622            0.0000000000
     32782      2822  TIP3      H2            -39.8051662543       21.1252397229       37.0394126310  TIP3      2622            0.0000000000
     32783      2823  TIP3      OH2           -21.3513377770       17.2438020178       38.5721348097  TIP3      2623            0.0000000000
     32784      2823  TIP3      H1            -20.9982547563       16.5822194422       37.9523782569  TIP3      2623            0.0000000000
     32785      2823  TIP3      H2            -21.2488100776       18.0578023193       38.0397966401  TIP3      2623            0.0000000000
     32786      2824  TIP3      OH2           -23.6583100520       19.2052434438       25.0466660261  TIP3      2624            0.0000000000
     32787      2824  TIP3      H1            -23.4362832327       18.7625974064       25.8919259380  TIP3      2624            0.0000000000
     32788      2824  TIP3      H2            -24.2807397549       18.5812430468       24.6258839380  TIP3      2624            0.0000000000
     32789      2825  TIP3      OH2           -38.1101969237       19.9773334876       29.5059244460  TIP3      2625            0.0000000000
     32790      2825  TIP3      H1            -37.7241371893       19.1607358431       29.8779282097  TIP3      2625            0.0000000000
     32791      2825  TIP3      H2            -37.6735591810       20.6714424292       30.0187955329  TIP3      2625            0.0000000000
     32792      2826  TIP3      OH2           -39.8515833281       23.5323009565       30.5902174341  TIP3      2626            0.0000000000
     32793      2826  TIP3      H1            -39.3136055629       23.0566207063       29.9359105212  TIP3      2626            0.0000000000
     32794      2826  TIP3      H2            -39.2041272418       24.0980916037       31.0207650275  TIP3      2626            0.0000000000
     32795      2827  TIP3      OH2           -21.8306656811       19.3418297038       36.9274544693  TIP3      2627            0.0000000000
     32796      2827  TIP3      H1            -22.7690790896       19.6137775811       36.8766308255  TIP3      2627            0.0000000000
     32797      2827  TIP3      H2            -21.7981645023       18.7897183451       36.1312939885  TIP3      2627            0.0000000000
     32798      2828  TIP3      OH2           -21.8086261743       19.1956360604       21.6541312378  TIP3      2628            0.0000000000
     32799      2828  TIP3      H1            -21.4083453345       18.5472268907       21.0743090823  TIP3      2628            0.0000000000
     32800      2828  TIP3      H2            -21.2046561766       19.9477051084       21.6086257459  TIP3      2628            0.0000000000
     32801      2829  TIP3      OH2           -39.5175899820       19.2933205223       24.6376241098  TIP3      2629            0.0000000000
     32802      2829  TIP3      H1            -40.4552747733       19.4555479176       24.5706820465  TIP3      2629            0.0000000000
     32803      2829  TIP3      H2            -39.0139754889       19.7901173962       23.9707524969  TIP3      2629            0.0000000000
     32804      2830  TIP3      OH2           -24.7984016669       34.2165205414       26.6782346309  TIP3      2630            0.0000000000
     32805      2830  TIP3      H1            -24.1174576127       33.9131557841       26.0468199221  TIP3      2630            0.0000000000
     32806      2830  TIP3      H2            -24.2704132276       34.7284633979       27.3087816266  TIP3      2630            0.0000000000
     32807      2831  TIP3      OH2            40.3093518569       18.0630544365       33.0281934547  TIP3      2631            0.0000000000
     32808      2831  TIP3      H1             39.5982039153       17.6650954314       33.5641800326  TIP3      2631            0.0000000000
     32809      2831  TIP3      H2             39.7593999682       18.6093952538       32.4563365196  TIP3      2631            0.0000000000
     32810      2832  TIP3      OH2           -37.3796139424       31.1366987373       37.2056906659  TIP3      2632            0.0000000000
     32811      2832  TIP3      H1            -38.1983704359       31.3242227781       36.7461894699  TIP3      2632            0.0000000000
     32812      2832  TIP3      H2            -37.6256567146       31.0281574363       38.1316384060  TIP3      2632            0.0000000000
     32813      2833  TIP3      OH2           -34.4415195259       32.1333199151       33.4587182664  TIP3      2633            0.0000000000
     32814      2833  TIP3      H1            -34.7822455029       33.0052910355       33.1913949531  TIP3      2633            0.0000000000
     32815      2833  TIP3      H2            -33.5157048458       32.2188979912       33.1543475405  TIP3      2633            0.0000000000
     32816      2834  TIP3      OH2           -30.1146741068       33.5586738183       36.3645313623  TIP3      2634            0.0000000000
     32817      2834  TIP3      H1            -29.9772878310       33.2002008625       37.2689875035  TIP3      2634            0.0000000000
     32818      2834  TIP3      H2            -29.2141569544       33.8592151376       36.1121643173  TIP3      2634            0.0000000000
     32819      2835  TIP3      OH2           -27.8153502083       34.8775435892       35.6596888876  TIP3      2635            0.0000000000
     32820      2835  TIP3      H1            -27.0959418757       34.2726863614       35.4282431061  TIP3      2635            0.0000000000
     32821      2835  TIP3      H2            -27.4551138025       35.2374527130       36.4960363221  TIP3      2635            0.0000000000
     32822      2836  TIP3      OH2           -22.8091497142       17.4309118397       34.7819084630  TIP3      2636            0.0000000000
     32823      2836  TIP3      H1            -23.6377665464       17.7298489637       34.3701945104  TIP3      2636            0.0000000000
     32824      2836  TIP3      H2            -22.6422778224       16.6076617594       34.2647624037  TIP3      2636            0.0000000000
     32825      2837  TIP3      OH2           -37.0273431638       35.3695821011       33.4800142532  TIP3      2637            0.0000000000
     32826      2837  TIP3      H1            -37.7702621437       35.8558429093       33.0724460257  TIP3      2637            0.0000000000
     32827      2837  TIP3      H2            -37.3480682353       35.1557324475       34.3640262889  TIP3      2637            0.0000000000
     32828      2838  TIP3      OH2           -34.5286694698       34.9298955261       32.5339148200  TIP3      2638            0.0000000000
     32829      2838  TIP3      H1            -35.4258784750       35.0736973718       32.9131593940  TIP3      2638            0.0000000000
     32830      2838  TIP3      H2            -34.5803678004       35.5155570815       31.7582604190  TIP3      2638            0.0000000000
     32831      2839  TIP3      OH2           -29.8376516191       34.8529620310       31.7206499394  TIP3      2639            0.0000000000
     32832      2839  TIP3      H1            -30.2935093875       35.3906660416       31.0505414511  TIP3      2639            0.0000000000
     32833      2839  TIP3      H2            -29.6928206970       35.5106576623       32.4317371373  TIP3      2639            0.0000000000
     32834      2840  TIP3      OH2           -27.5477563404       33.6642035380       32.7256919398  TIP3      2640            0.0000000000
     32835      2840  TIP3      H1            -28.4003245693       33.9422069982       32.3563063430  TIP3      2640            0.0000000000
     32836      2840  TIP3      H2            -27.0615196733       34.5071012267       32.6466656889  TIP3      2640            0.0000000000
     32837      2841  TIP3      OH2           -24.9504142376       35.2660053219       32.9562503803  TIP3      2641            0.0000000000
     32838      2841  TIP3      H1            -25.0297949875       36.2260004707       32.7293384588  TIP3      2641            0.0000000000
     32839      2841  TIP3      H2            -24.7664178231       34.8768793400       32.0780019472  TIP3      2641            0.0000000000
     32840      2842  TIP3      OH2           -37.5195428057       34.0642746081       30.4075538010  TIP3      2642            0.0000000000
     32841      2842  TIP3      H1            -37.6178036188       33.5624494091       31.2375319862  TIP3      2642            0.0000000000
     32842      2842  TIP3      H2            -36.7601374248       33.6203298798       29.9886733814  TIP3      2642            0.0000000000
     32843      2843  TIP3      OH2           -35.4895620732       32.7137705763       29.0587655277  TIP3      2643            0.0000000000
     32844      2843  TIP3      H1            -35.6553405459       31.7813113446       29.2919721155  TIP3      2643            0.0000000000
     32845      2843  TIP3      H2            -34.6306940738       32.8757696908       29.5057577845  TIP3      2643            0.0000000000
     32846      2844  TIP3      OH2           -32.8830242746       33.2073115470       29.9351371000  TIP3      2644            0.0000000000
     32847      2844  TIP3      H1            -32.7213147919       32.2852816187       29.6699695010  TIP3      2644            0.0000000000
     32848      2844  TIP3      H2            -32.8256446925       33.1633309589       30.8989524783  TIP3      2644            0.0000000000
     32849      2845  TIP3      OH2           -29.4186839562       18.8510187800       29.0745013618  TIP3      2645            0.0000000000
     32850      2845  TIP3      H1            -30.0996204163       18.2120466692       29.3465820620  TIP3      2645            0.0000000000
     32851      2845  TIP3      H2            -28.8705711196       18.3220478129       28.4837829173  TIP3      2645            0.0000000000
     32852      2846  TIP3      OH2           -24.2835240626       16.9023983754       29.1261415154  TIP3      2646            0.0000000000
     32853      2846  TIP3      H1            -23.6720527829       17.4982857951       28.6210080119  TIP3      2646            0.0000000000
     32854      2846  TIP3      H2            -25.1662297533       17.2636313366       28.8949376986  TIP3      2646            0.0000000000
     32855      2847  TIP3      OH2           -22.6120973571       18.1543813057       27.4109544185  TIP3      2647            0.0000000000
     32856      2847  TIP3      H1            -21.9243306935       17.5868608097       26.9873478651  TIP3      2647            0.0000000000
     32857      2847  TIP3      H2            -22.1107590789       18.9959951261       27.5187423186  TIP3      2647            0.0000000000
     32858      2848  TIP3      OH2           -37.0433125107       17.4838139615       26.9249559638  TIP3      2648            0.0000000000
     32859      2848  TIP3      H1            -37.8171340880       17.2906088838       26.3503501426  TIP3      2648            0.0000000000
     32860      2848  TIP3      H2            -36.5818798062       16.6258703705       26.8525426358  TIP3      2648            0.0000000000
     32861      2849  TIP3      OH2           -38.3241523464       17.2718068807       22.5983531751  TIP3      2649            0.0000000000
     32862      2849  TIP3      H1            -37.7619534490       17.9001420365       22.1164091399  TIP3      2649            0.0000000000
     32863      2849  TIP3      H2            -38.8212503759       17.8133628893       23.2205287612  TIP3      2649            0.0000000000
     32864      2850  TIP3      OH2           -32.5844495744       17.3936371272       26.7082116859  TIP3      2650            0.0000000000
     32865      2850  TIP3      H1            -31.6897846909       17.7679663048       26.6179805556  TIP3      2650            0.0000000000
     32866      2850  TIP3      H2            -32.6161929993       17.1922294801       27.6436120633  TIP3      2650            0.0000000000
     32867      2851  TIP3      OH2           -26.8614929714       17.4254479342       28.3142966197  TIP3      2651            0.0000000000
     32868      2851  TIP3      H1            -26.9147930454       17.5345388771       27.3550668539  TIP3      2651            0.0000000000
     32869      2851  TIP3      H2            -27.2490231095       16.5249077692       28.4475146858  TIP3      2651            0.0000000000
     32870      2852  TIP3      OH2           -25.6303168389       17.4595422563       23.9467828074  TIP3      2652            0.0000000000
     32871      2852  TIP3      H1            -26.3733989157       18.0721048589       23.8604471269  TIP3      2652            0.0000000000
     32872      2852  TIP3      H2            -26.0643530802       16.6149045075       24.2162319535  TIP3      2652            0.0000000000
     32873      2853  TIP3      OH2           -38.4085078337       33.1898052031       23.6634327769  TIP3      2653            0.0000000000
     32874      2853  TIP3      H1            -39.0162039062       33.1954311963       22.9153894058  TIP3      2653            0.0000000000
     32875      2853  TIP3      H2            -38.3164278109       34.1397143924       23.7853928119  TIP3      2653            0.0000000000
     32876      2854  TIP3      OH2           -36.4639351294       19.1330129514       21.1836331759  TIP3      2654            0.0000000000
     32877      2854  TIP3      H1            -35.9189325675       18.5789791489       20.6271170393  TIP3      2654            0.0000000000
     32878      2854  TIP3      H2            -35.7766572700       19.5042669439       21.7657932503  TIP3      2654            0.0000000000
     32879      2855  TIP3      OH2           -31.4762782782       19.4221848353       23.5705203547  TIP3      2655            0.0000000000
     32880      2855  TIP3      H1            -31.1576649514       18.8611313711       24.2873323344  TIP3      2655            0.0000000000
     32881      2855  TIP3      H2            -31.3511477464       20.3017367562       23.9845879331  TIP3      2655            0.0000000000
     32882      2856  TIP3      OH2           -22.7754391641       34.0045630465       24.6962294719  TIP3      2656            0.0000000000
     32883      2856  TIP3      H1            -22.9786194232       33.2393493707       24.1128497724  TIP3      2656            0.0000000000
     32884      2856  TIP3      H2            -22.8737907478       34.7515656928       24.0700974033  TIP3      2656            0.0000000000
     32885      2857  TIP3      OH2           -37.1689090398       18.0434715687       36.3828269623  TIP3      2657            0.0000000000
     32886      2857  TIP3      H1            -37.5628567426       17.2327042980       36.7573473493  TIP3      2657            0.0000000000
     32887      2857  TIP3      H2            -36.2536543059       17.9816632206       36.7451965847  TIP3      2657            0.0000000000
     32888      2858  TIP3      OH2           -35.1794229779       17.4101447616       38.0041559911  TIP3      2658            0.0000000000
     32889      2858  TIP3      H1            -34.2881289746       17.0791789137       37.7884715236  TIP3      2658            0.0000000000
     32890      2858  TIP3      H2            -35.5464478890       16.6031407578       38.4059387499  TIP3      2658            0.0000000000
     32891      2859  TIP3      OH2           -26.7611593772       16.6943283825       38.1574983781  TIP3      2659            0.0000000000
     32892      2859  TIP3      H1            -26.6679113342       16.2214181942       39.0075486787  TIP3      2659            0.0000000000
     32893      2859  TIP3      H2            -25.8436613087       16.6598704342       37.8153055649  TIP3      2659            0.0000000000
     32894      2860  TIP3      OH2           -23.5458614602       32.7481653435       36.7847212909  TIP3      2660            0.0000000000
     32895      2860  TIP3      H1            -24.3531168794       32.6078743271       36.2427888576  TIP3      2660            0.0000000000
     32896      2860  TIP3      H2            -23.6705883959       33.6942823007       37.0080995976  TIP3      2660            0.0000000000
     32897      2861  TIP3      OH2            -9.1081242109       26.6282943120       26.7869338445  TIP3      2661            0.0000000000
     32898      2861  TIP3      H1             -9.1079906245       27.6075813970       26.7417686454  TIP3      2661            0.0000000000
     32899      2861  TIP3      H2             -9.8196299559       26.4050283712       26.1637640264  TIP3      2661            0.0000000000
     32900      2862  TIP3      OH2           -10.2505920506       25.8784056431       30.2726331777  TIP3      2662            0.0000000000
     32901      2862  TIP3      H1            -10.2637773496       25.2269232781       30.9884455801  TIP3      2662            0.0000000000
     32902      2862  TIP3      H2            -10.5980599225       25.3686600545       29.5197874576  TIP3      2662            0.0000000000
     32903      2863  TIP3      OH2           -17.9082936064       25.5705171849       31.8330050837  TIP3      2663            0.0000000000
     32904      2863  TIP3      H1            -17.8185867482       24.8752797580       32.5176031877  TIP3      2663            0.0000000000
     32905      2863  TIP3      H2            -17.1352933711       26.1112899807       32.0381111914  TIP3      2663            0.0000000000
     32906      2864  TIP3      OH2            -6.5843037857       28.8124982795       28.5401686569  TIP3      2664            0.0000000000
     32907      2864  TIP3      H1             -6.9776077586       28.0870624834       29.0374704410  TIP3      2664            0.0000000000
     32908      2864  TIP3      H2             -6.5363645700       29.5023271112       29.2237505370  TIP3      2664            0.0000000000
     32909      2865  TIP3      OH2           -16.9852177205       29.9781747481       30.4286595385  TIP3      2665            0.0000000000
     32910      2865  TIP3      H1            -17.2805025746       29.1466647901       29.9906169427  TIP3      2665            0.0000000000
     32911      2865  TIP3      H2            -16.0197651582       29.8257765510       30.3393840633  TIP3      2665            0.0000000000
     32912      2866  TIP3      OH2           -20.3283727233       23.5618303830       25.7545597421  TIP3      2666            0.0000000000
     32913      2866  TIP3      H1            -20.7842725011       24.4282957412       25.7449839313  TIP3      2666            0.0000000000
     32914      2866  TIP3      H2            -20.9148094103       23.0117563017       25.2267777680  TIP3      2666            0.0000000000
     32915      2867  TIP3      OH2           -19.6219484857       25.7844828915       27.9649712121  TIP3      2667            0.0000000000
     32916      2867  TIP3      H1            -19.3459378925       24.9606308180       28.4095970915  TIP3      2667            0.0000000000
     32917      2867  TIP3      H2            -18.9318759144       25.8927464841       27.2924622256  TIP3      2667            0.0000000000
     32918      2868  TIP3      OH2            -9.4742959814       33.9524450455       28.7917937732  TIP3      2668            0.0000000000
     32919      2868  TIP3      H1             -8.7904426323       33.3020418668       28.5021458577  TIP3      2668            0.0000000000
     32920      2868  TIP3      H2             -9.6604111559       33.6515827841       29.6747747751  TIP3      2668            0.0000000000
     32921      2869  TIP3      OH2           -11.8762872400       28.2799071248       30.7464930896  TIP3      2669            0.0000000000
     32922      2869  TIP3      H1            -11.5443389064       27.6525713214       30.0869522406  TIP3      2669            0.0000000000
     32923      2869  TIP3      H2            -11.0655057939       28.4354716931       31.2574692275  TIP3      2669            0.0000000000
     32924      2870  TIP3      OH2            -3.2844801299       19.9425697075       31.4641983064  TIP3      2670            0.0000000000
     32925      2870  TIP3      H1             -3.1029566827       20.5257971682       32.2325691215  TIP3      2670            0.0000000000
     32926      2870  TIP3      H2             -2.7117669006       20.3598601273       30.8048923987  TIP3      2670            0.0000000000
     32927      2871  TIP3      OH2            -8.7082023300       22.7461105804       31.0567879457  TIP3      2671            0.0000000000
     32928      2871  TIP3      H1             -8.5402812884       21.7871520313       31.0623126321  TIP3      2671            0.0000000000
     32929      2871  TIP3      H2             -8.8125325440       22.8855229303       30.0959544045  TIP3      2671            0.0000000000
     32930      2872  TIP3      OH2           -15.6107917548       20.8298660691       28.2654890010  TIP3      2672            0.0000000000
     32931      2872  TIP3      H1            -15.4857145016       21.6689023883       27.7749510493  TIP3      2672            0.0000000000
     32932      2872  TIP3      H2            -15.9959260244       20.2639866118       27.5668222640  TIP3      2672            0.0000000000
     32933      2873  TIP3      OH2            -7.8621817008       20.9206544329       26.6597243190  TIP3      2673            0.0000000000
     32934      2873  TIP3      H1             -7.1965390671       20.5998829945       27.3134941368  TIP3      2673            0.0000000000
     32935      2873  TIP3      H2             -7.3073156424       21.4830889235       26.0956449861  TIP3      2673            0.0000000000
     32936      2874  TIP3      OH2           -18.9712343612       23.2459696453       29.0041722408  TIP3      2674            0.0000000000
     32937      2874  TIP3      H1            -18.3019612041       22.7030410934       29.4607669979  TIP3      2674            0.0000000000
     32938      2874  TIP3      H2            -18.8635392684       22.9335860287       28.0928865566  TIP3      2674            0.0000000000
     32939      2875  TIP3      OH2           -13.8152320300       24.7986911973       28.3235381626  TIP3      2675            0.0000000000
     32940      2875  TIP3      H1            -13.1417509855       24.2198047283       28.7212994998  TIP3      2675            0.0000000000
     32941      2875  TIP3      H2            -14.3276075556       24.1399462215       27.8111290591  TIP3      2675            0.0000000000
     32942      2876  TIP3      OH2            -2.8404425584       21.3416381110       33.7442042031  TIP3      2676            0.0000000000
     32943      2876  TIP3      H1             -3.4438439899       22.1090878109       33.6311460733  TIP3      2676            0.0000000000
     32944      2876  TIP3      H2             -2.8072159132       21.2656561413       34.7043302288  TIP3      2676            0.0000000000
     32945      2877  TIP3      OH2           -16.6844965728       19.7354597695       32.3106997683  TIP3      2677            0.0000000000
     32946      2877  TIP3      H1            -16.9678955695       20.3071164819       31.5657193054  TIP3      2677            0.0000000000
     32947      2877  TIP3      H2            -17.3618158903       19.9631791006       32.9933953492  TIP3      2677            0.0000000000
     32948      2878  TIP3      OH2            -9.4368584354       29.2143430012       25.8633917403  TIP3      2678            0.0000000000
     32949      2878  TIP3      H1             -9.6766210030       28.9476611711       24.9665960302  TIP3      2678            0.0000000000
     32950      2878  TIP3      H2             -9.6956386235       30.1576213741       25.9311662750  TIP3      2678            0.0000000000
     32951      2879  TIP3      OH2           -14.1751844762       27.3791372756       32.5573966779  TIP3      2679            0.0000000000
     32952      2879  TIP3      H1            -14.8757533304       28.0246283147       32.7653473733  TIP3      2679            0.0000000000
     32953      2879  TIP3      H2            -13.4591634431       27.9621931889       32.2570608587  TIP3      2679            0.0000000000
     32954      2880  TIP3      OH2            -6.0548383455       20.2724253732       28.6429144191  TIP3      2680            0.0000000000
     32955      2880  TIP3      H1             -6.2661734925       19.4941796040       29.1669311231  TIP3      2680            0.0000000000
     32956      2880  TIP3      H2             -5.3744426565       20.6990374260       29.1902354734  TIP3      2680            0.0000000000
     32957      2881  TIP3      OH2           -17.1161778611       21.5922845557       30.3473535467  TIP3      2681            0.0000000000
     32958      2881  TIP3      H1            -16.4891325334       22.2812138184       30.6618905619  TIP3      2681            0.0000000000
     32959      2881  TIP3      H2            -16.6006792976       21.1843526572       29.6049116216  TIP3      2681            0.0000000000
     32960      2882  TIP3      OH2           -15.7376544912       29.3838885341       33.3672089081  TIP3      2682            0.0000000000
     32961      2882  TIP3      H1            -15.7072167768       30.2936004173       33.0179941217  TIP3      2682            0.0000000000
     32962      2882  TIP3      H2            -16.5722530980       29.2025828568       33.8608077338  TIP3      2682            0.0000000000
     32963      2883  TIP3      OH2           -19.7012678445       28.9946667376       24.1642206343  TIP3      2683            0.0000000000
     32964      2883  TIP3      H1            -19.8945639914       29.3290410409       23.2683590317  TIP3      2683            0.0000000000
     32965      2883  TIP3      H2            -19.5818095327       29.8215766931       24.6687832805  TIP3      2683            0.0000000000
     32966      2884  TIP3      OH2            -6.1098873504       30.4388026745       30.7329255030  TIP3      2684            0.0000000000
     32967      2884  TIP3      H1             -7.0730799500       30.5824770411       30.9008509484  TIP3      2684            0.0000000000
     32968      2884  TIP3      H2             -5.7536279587       31.2615493254       30.3453294630  TIP3      2684            0.0000000000
     32969      2885  TIP3      OH2            -5.7121020314       18.9468442229       32.3102410655  TIP3      2685            0.0000000000
     32970      2885  TIP3      H1             -6.4376775374       19.5804330141       32.2171700394  TIP3      2685            0.0000000000
     32971      2885  TIP3      H2             -4.9998060609       19.3651316590       31.7886438401  TIP3      2685            0.0000000000
     32972      2886  TIP3      OH2           -12.7506064085       17.0700911308       29.7765192741  TIP3      2686            0.0000000000
     32973      2886  TIP3      H1            -12.8934086481       16.1063265533       29.7003535303  TIP3      2686            0.0000000000
     32974      2886  TIP3      H2            -13.6285674652       17.3744445857       30.0841446449  TIP3      2686            0.0000000000
     32975      2887  TIP3      OH2            -7.7395592267       32.4498080535       27.5554142653  TIP3      2687            0.0000000000
     32976      2887  TIP3      H1             -7.3587700311       31.7409990713       26.9913855071  TIP3      2687            0.0000000000
     32977      2887  TIP3      H2             -7.3326033194       33.2503881741       27.1368920209  TIP3      2687            0.0000000000
     32978      2888  TIP3      OH2            -6.5592926228       30.3551350600       26.0003591758  TIP3      2688            0.0000000000
     32979      2888  TIP3      H1             -6.8640198089       29.6486341137       25.4141549703  TIP3      2688            0.0000000000
     32980      2888  TIP3      H2             -6.5265419029       29.8791230109       26.8511390424  TIP3      2688            0.0000000000
     32981      2889  TIP3      OH2            -4.9813641983       28.9812002540       34.5135788216  TIP3      2689            0.0000000000
     32982      2889  TIP3      H1             -4.7910084185       28.2911943455       33.8314254742  TIP3      2689            0.0000000000
     32983      2889  TIP3      H2             -4.6943587695       29.7998784225       34.0905306877  TIP3      2689            0.0000000000
     32984      2890  TIP3      OH2           -10.4420125803       25.9146212573       24.2923342898  TIP3      2690            0.0000000000
     32985      2890  TIP3      H1            -11.1430316046       26.4403763352       23.8893663070  TIP3      2690            0.0000000000
     32986      2890  TIP3      H2             -9.7271232791       25.9147550066       23.6176345397  TIP3      2690            0.0000000000
     32987      2891  TIP3      OH2            -3.0661637200       25.2910293863       32.5643092563  TIP3      2691            0.0000000000
     32988      2891  TIP3      H1             -3.7201439911       26.0138868572       32.6030872680  TIP3      2691            0.0000000000
     32989      2891  TIP3      H2             -2.5644941776       25.5151459566       31.7587383642  TIP3      2691            0.0000000000
     32990      2892  TIP3      OH2            -6.9697058087       26.0916293846       25.2164108975  TIP3      2692            0.0000000000
     32991      2892  TIP3      H1             -7.7264838627       26.3121923813       25.8065052548  TIP3      2692            0.0000000000
     32992      2892  TIP3      H2             -6.5214439342       25.3975534819       25.7264292727  TIP3      2692            0.0000000000
     32993      2893  TIP3      OH2            -7.0726501843       24.2356915675       34.3329160684  TIP3      2693            0.0000000000
     32994      2893  TIP3      H1             -7.0660464488       25.0559930035       34.8536761897  TIP3      2693            0.0000000000
     32995      2893  TIP3      H2             -7.7023741798       24.5272237013       33.6409979612  TIP3      2693            0.0000000000
     32996      2894  TIP3      OH2           -15.4036174665       26.7237667073       27.1446985481  TIP3      2694            0.0000000000
     32997      2894  TIP3      H1            -15.7032782245       26.3531259444       26.2817328192  TIP3      2694            0.0000000000
     32998      2894  TIP3      H2            -14.7749365081       26.0327204664       27.4622258606  TIP3      2694            0.0000000000
     32999      2895  TIP3      OH2           -14.1175752483       30.0989577092       29.8469436623  TIP3      2695            0.0000000000
     33000      2895  TIP3      H1            -14.0810349776       29.6122955387       29.0064339943  TIP3      2695            0.0000000000
     33001      2895  TIP3      H2            -13.2933381426       29.7703588352       30.2562470960  TIP3      2695            0.0000000000
     33002      2896  TIP3      OH2           -15.0660242623       25.4699235457       30.7864982845  TIP3      2696            0.0000000000
     33003      2896  TIP3      H1            -14.5161568608       25.5754019186       29.9855445716  TIP3      2696            0.0000000000
     33004      2896  TIP3      H2            -14.6800881206       26.1328124192       31.3978154097  TIP3      2696            0.0000000000
     33005      2897  TIP3      OH2            -8.5367809715       31.0799078411       31.5594280079  TIP3      2697            0.0000000000
     33006      2897  TIP3      H1             -9.0324300928       31.6790815073       32.1323702363  TIP3      2697            0.0000000000
     33007      2897  TIP3      H2             -8.8959202919       30.2063804395       31.8859660075  TIP3      2697            0.0000000000
     33008      2898  TIP3      OH2           -14.1232729104       29.9280898213       35.4660885585  TIP3      2698            0.0000000000
     33009      2898  TIP3      H1            -14.5147247833       30.6636811525       35.9794835046  TIP3      2698            0.0000000000
     33010      2898  TIP3      H2            -14.7846079655       29.6990528400       34.7810590673  TIP3      2698            0.0000000000
     33011      2899  TIP3      OH2            -8.1637501228       25.2963970453       22.9113613787  TIP3      2699            0.0000000000
     33012      2899  TIP3      H1             -7.5816441277       25.4598320697       23.6855249690  TIP3      2699            0.0000000000
     33013      2899  TIP3      H2             -7.7285823008       25.7409394320       22.1569404588  TIP3      2699            0.0000000000
     33014      2900  TIP3      OH2           -17.1582391964       26.0892772510       34.6119012536  TIP3      2700            0.0000000000
     33015      2900  TIP3      H1            -17.1155558907       26.7179284093       35.3544552438  TIP3      2700            0.0000000000
     33016      2900  TIP3      H2            -18.1099503651       26.1271333865       34.4313552719  TIP3      2700            0.0000000000
     33017      2901  TIP3      OH2           -10.4044505830       32.0073771665       26.3267484938  TIP3      2701            0.0000000000
     33018      2901  TIP3      H1             -9.9664251873       32.2982465030       27.1447190911  TIP3      2701            0.0000000000
     33019      2901  TIP3      H2            -10.9742100942       32.7565062435       26.1229867399  TIP3      2701            0.0000000000
     33020      2902  TIP3      OH2           -15.8697613727       31.9289994810       36.2199775145  TIP3      2702            0.0000000000
     33021      2902  TIP3      H1            -15.8950634150       31.8555821426       35.2610918172  TIP3      2702            0.0000000000
     33022      2902  TIP3      H2            -16.7968841321       31.8263149278       36.5173347190  TIP3      2702            0.0000000000
     33023      2903  TIP3      OH2           -16.4101418199       25.7386504715       24.7024103708  TIP3      2703            0.0000000000
     33024      2903  TIP3      H1            -16.7066377895       26.5481871333       24.2149236006  TIP3      2703            0.0000000000
     33025      2903  TIP3      H2            -17.1234873296       25.1187596812       24.5567407188  TIP3      2703            0.0000000000
     33026      2904  TIP3      OH2           -20.3148224332       28.1918301561       33.6204380345  TIP3      2704            0.0000000000
     33027      2904  TIP3      H1            -20.7923459021       28.0895472110       32.7734966196  TIP3      2704            0.0000000000
     33028      2904  TIP3      H2            -20.2554345095       27.2408025610       33.8547322017  TIP3      2704            0.0000000000
     33029      2905  TIP3      OH2           -20.5564620627       30.9063428821       30.4587996428  TIP3      2705            0.0000000000
     33030      2905  TIP3      H1            -19.6077106787       30.8236607924       30.3387701624  TIP3      2705            0.0000000000
     33031      2905  TIP3      H2            -20.6739478189       31.7642052469       30.8887097168  TIP3      2705            0.0000000000
     33032      2906  TIP3      OH2            -2.3596017149       31.6142261039       36.0575160603  TIP3      2706            0.0000000000
     33033      2906  TIP3      H1             -2.4384870621       30.6535897345       36.0940758737  TIP3      2706            0.0000000000
     33034      2906  TIP3      H2             -3.1998869473       31.8643580035       36.5067239494  TIP3      2706            0.0000000000
     33035      2907  TIP3      OH2           -11.3498772704       31.1668666355       34.9591529566  TIP3      2707            0.0000000000
     33036      2907  TIP3      H1            -11.3098315266       32.0074277763       35.4711703507  TIP3      2707            0.0000000000
     33037      2907  TIP3      H2            -12.2125536671       30.7973465494       35.2259089199  TIP3      2707            0.0000000000
     33038      2908  TIP3      OH2           -10.9036595711       34.9335862173       24.7928381752  TIP3      2708            0.0000000000
     33039      2908  TIP3      H1            -11.0352762372       34.8790949411       23.8492759511  TIP3      2708            0.0000000000
     33040      2908  TIP3      H2            -10.9196232890       35.8861490134       24.9616222916  TIP3      2708            0.0000000000
     33041      2909  TIP3      OH2           -17.2984039418       33.7792633184       26.5904496938  TIP3      2709            0.0000000000
     33042      2909  TIP3      H1            -17.1388381662       33.3906913273       27.4829831921  TIP3      2709            0.0000000000
     33043      2909  TIP3      H2            -18.1575823749       33.3741796062       26.3956068981  TIP3      2709            0.0000000000
     33044      2910  TIP3      OH2            -7.9397684558       34.0668592760       21.7540188646  TIP3      2710            0.0000000000
     33045      2910  TIP3      H1             -7.4338223892       33.3819751109       21.3148261703  TIP3      2710            0.0000000000
     33046      2910  TIP3      H2             -7.8633860185       33.8634825970       22.6996563656  TIP3      2710            0.0000000000
     33047      2911  TIP3      OH2            -8.1897959523       34.0591061350       24.5365346709  TIP3      2711            0.0000000000
     33048      2911  TIP3      H1             -9.1386505673       34.1613830015       24.7516215214  TIP3      2711            0.0000000000
     33049      2911  TIP3      H2             -7.9259008115       33.3205452394       25.1074274548  TIP3      2711            0.0000000000
     33050      2912  TIP3      OH2            -5.1854783748       23.0882067763       36.5725966990  TIP3      2712            0.0000000000
     33051      2912  TIP3      H1             -5.6624599982       23.5381733546       35.8563871435  TIP3      2712            0.0000000000
     33052      2912  TIP3      H2             -5.2009153823       22.1684345514       36.2675265043  TIP3      2712            0.0000000000
     33053      2913  TIP3      OH2           -18.0648170244       29.2044646630       34.6969224216  TIP3      2713            0.0000000000
     33054      2913  TIP3      H1            -17.8981090357       28.9445080989       35.6394010870  TIP3      2713            0.0000000000
     33055      2913  TIP3      H2            -18.9788808127       28.8874439980       34.5100438159  TIP3      2713            0.0000000000
     33056      2914  TIP3      OH2           -15.3651461293       17.9800439678       30.5162309023  TIP3      2714            0.0000000000
     33057      2914  TIP3      H1            -16.2700780157       17.8459294729       30.1598610238  TIP3      2714            0.0000000000
     33058      2914  TIP3      H2            -15.5004082905       18.8028889012       31.0145382233  TIP3      2714            0.0000000000
     33059      2915  TIP3      OH2           -10.7201199949       17.6362503100       33.8873496114  TIP3      2715            0.0000000000
     33060      2915  TIP3      H1            -10.3291928451       17.2137430746       34.6743118964  TIP3      2715            0.0000000000
     33061      2915  TIP3      H2            -11.6925909195       17.5226166477       34.0340871303  TIP3      2715            0.0000000000
     33062      2916  TIP3      OH2            -7.4350144278       21.4847046168       34.7891199056  TIP3      2716            0.0000000000
     33063      2916  TIP3      H1             -7.9986465157       21.2706904924       35.5711079969  TIP3      2716            0.0000000000
     33064      2916  TIP3      H2             -7.6182044855       22.4127189204       34.5620358017  TIP3      2716            0.0000000000
     33065      2917  TIP3      OH2            -6.6652827263       26.2908771253       20.6479413466  TIP3      2717            0.0000000000
     33066      2917  TIP3      H1             -6.7276970301       26.0937218212       19.6997675648  TIP3      2717            0.0000000000
     33067      2917  TIP3      H2             -5.8297478206       26.7386586568       20.7259090204  TIP3      2717            0.0000000000
     33068      2918  TIP3      OH2           -15.2572058785       22.9467615865       31.7995089842  TIP3      2718            0.0000000000
     33069      2918  TIP3      H1            -16.0018179966       22.9375199172       32.4225784866  TIP3      2718            0.0000000000
     33070      2918  TIP3      H2            -15.3093858206       23.8520534906       31.4099000919  TIP3      2718            0.0000000000
     33071      2919  TIP3      OH2           -15.3080876172       23.0545808061       26.6456034879  TIP3      2719            0.0000000000
     33072      2919  TIP3      H1            -16.2480640861       22.8118657495       26.5051803168  TIP3      2719            0.0000000000
     33073      2919  TIP3      H2            -14.9270432661       22.7531597393       25.7914036696  TIP3      2719            0.0000000000
     33074      2920  TIP3      OH2            -9.8048451726       23.5373056389       25.3389680365  TIP3      2720            0.0000000000
     33075      2920  TIP3      H1            -10.1593936634       24.4085155573       25.0519559034  TIP3      2720            0.0000000000
     33076      2920  TIP3      H2             -9.0790854249       23.4037822076       24.7009307870  TIP3      2720            0.0000000000
     33077      2921  TIP3      OH2           -10.7295415174       23.7750801153       36.8516086887  TIP3      2721            0.0000000000
     33078      2921  TIP3      H1            -11.2537462765       22.9990468922       37.1619710622  TIP3      2721            0.0000000000
     33079      2921  TIP3      H2             -9.8911312797       23.6551898207       37.3280459353  TIP3      2721            0.0000000000
     33080      2922  TIP3      OH2            -8.7485825557       23.0583068039       28.2515950332  TIP3      2722            0.0000000000
     33081      2922  TIP3      H1             -9.0283346984       23.6156873315       27.5054299947  TIP3      2722            0.0000000000
     33082      2922  TIP3      H2             -8.6499564954       22.2065508935       27.7837239141  TIP3      2722            0.0000000000
     33083      2923  TIP3      OH2           -17.6467600103       23.2027495704       33.4599226660  TIP3      2723            0.0000000000
     33084      2923  TIP3      H1            -17.5562730741       23.6037242844       34.3405521041  TIP3      2723            0.0000000000
     33085      2923  TIP3      H2            -18.0792366687       22.3587345950       33.6705935361  TIP3      2723            0.0000000000
     33086      2924  TIP3      OH2           -14.1818199285       20.6868938618       20.4776935983  TIP3      2724            0.0000000000
     33087      2924  TIP3      H1            -14.6467211983       20.1234504565       21.0808911642  TIP3      2724            0.0000000000
     33088      2924  TIP3      H2            -14.8469689080       20.8706935215       19.7876126362  TIP3      2724            0.0000000000
     33089      2925  TIP3      OH2           -20.9797044970       20.2981887309       27.4466678226  TIP3      2725            0.0000000000
     33090      2925  TIP3      H1            -20.2943430833       20.2573013158       28.1422275016  TIP3      2725            0.0000000000
     33091      2925  TIP3      H2            -20.5343660347       19.9280669858       26.6608087718  TIP3      2725            0.0000000000
     33092      2926  TIP3      OH2           -19.6593286705       21.0531584805       22.7687300747  TIP3      2726            0.0000000000
     33093      2926  TIP3      H1            -19.2268280958       21.6959476695       22.2221148444  TIP3      2726            0.0000000000
     33094      2926  TIP3      H2            -20.3880095574       21.6002041641       23.1453294066  TIP3      2726            0.0000000000
     33095      2927  TIP3      OH2            -9.5534431854       24.6379903877       32.8123708395  TIP3      2727            0.0000000000
     33096      2927  TIP3      H1             -9.1708712036       23.9510545229       32.2294705586  TIP3      2727            0.0000000000
     33097      2927  TIP3      H2            -10.0197043383       24.1109729419       33.4858341800  TIP3      2727            0.0000000000
     33098      2928  TIP3      OH2           -12.7574359349       20.6205091506       27.6623886800  TIP3      2728            0.0000000000
     33099      2928  TIP3      H1            -13.6918491665       20.6249276040       27.9554162114  TIP3      2728            0.0000000000
     33100      2928  TIP3      H2            -12.2688120723       20.4413996890       28.4782686203  TIP3      2728            0.0000000000
     33101      2929  TIP3      OH2           -17.9328825789       22.1983100052       26.4920628527  TIP3      2729            0.0000000000
     33102      2929  TIP3      H1            -18.8386122352       22.2988187585       26.1319832347  TIP3      2729            0.0000000000
     33103      2929  TIP3      H2            -17.6510250904       21.3303876144       26.1480498671  TIP3      2729            0.0000000000
     33104      2930  TIP3      OH2           -14.3385642220       22.2739735508       24.1800146098  TIP3      2730            0.0000000000
     33105      2930  TIP3      H1            -13.3694250619       22.2720322088       24.3233474317  TIP3      2730            0.0000000000
     33106      2930  TIP3      H2            -14.4729023082       22.9085131906       23.4830928242  TIP3      2730            0.0000000000
     33107      2931  TIP3      OH2            -8.3419020393       19.8525194869       30.8894283319  TIP3      2731            0.0000000000
     33108      2931  TIP3      H1             -9.0266421141       19.9017980822       31.5974867150  TIP3      2731            0.0000000000
     33109      2931  TIP3      H2             -8.8541167213       19.5955538090       30.1082747389  TIP3      2731            0.0000000000
     33110      2932  TIP3      OH2            -5.1356463207       35.4543299724       37.2258021418  TIP3      2732            0.0000000000
     33111      2932  TIP3      H1             -4.9007798108       35.8822886534       36.3788022417  TIP3      2732            0.0000000000
     33112      2932  TIP3      H2             -4.4405433629       35.8730302381       37.7717785796  TIP3      2732            0.0000000000
     33113      2933  TIP3      OH2           -17.4465748921       27.9351662873       36.8369204578  TIP3      2733            0.0000000000
     33114      2933  TIP3      H1            -16.7294728629       28.1933658634       37.4363447854  TIP3      2733            0.0000000000
     33115      2933  TIP3      H2            -18.2335885337       28.0268999270       37.4227279846  TIP3      2733            0.0000000000
     33116      2934  TIP3      OH2           -11.4674736714       23.3736037703       29.5437819895  TIP3      2734            0.0000000000
     33117      2934  TIP3      H1            -10.8660602266       22.8412480233       29.0097265591  TIP3      2734            0.0000000000
     33118      2934  TIP3      H2            -11.6139266455       22.8229619784       30.3243522935  TIP3      2734            0.0000000000
     33119      2935  TIP3      OH2           -16.4775868870       19.5353435127       25.9152097152  TIP3      2735            0.0000000000
     33120      2935  TIP3      H1            -16.7636767201       18.6075743330       26.0074483107  TIP3      2735            0.0000000000
     33121      2935  TIP3      H2            -15.6350165141       19.4545100182       25.4459530773  TIP3      2735            0.0000000000
     33122      2936  TIP3      OH2           -12.8270149616       21.6979151846       31.9570708467  TIP3      2736            0.0000000000
     33123      2936  TIP3      H1            -13.6525850422       22.2194416338       32.0460189048  TIP3      2736            0.0000000000
     33124      2936  TIP3      H2            -12.2726320728       22.0531460421       32.6791620095  TIP3      2736            0.0000000000
     33125      2937  TIP3      OH2           -12.2841066763       27.9956204962       23.6224540289  TIP3      2737            0.0000000000
     33126      2937  TIP3      H1            -13.0350126416       27.4354498532       23.3154625012  TIP3      2737            0.0000000000
     33127      2937  TIP3      H2            -12.4490975708       28.0303541876       24.5902337533  TIP3      2737            0.0000000000
     33128      2938  TIP3      OH2            -5.0526959138       27.1609959354       32.4684765856  TIP3      2738            0.0000000000
     33129      2938  TIP3      H1             -4.4802108698       27.5867486054       31.8084192338  TIP3      2738            0.0000000000
     33130      2938  TIP3      H2             -5.9079964378       27.1451841470       31.9888027153  TIP3      2738            0.0000000000
     33131      2939  TIP3      OH2           -10.7463874020       28.1979503827       34.8988897889  TIP3      2739            0.0000000000
     33132      2939  TIP3      H1            -11.0775684004       27.7641137218       35.6944399241  TIP3      2739            0.0000000000
     33133      2939  TIP3      H2            -10.9860253316       29.1243048705       35.0108477751  TIP3      2739            0.0000000000
     33134      2940  TIP3      OH2            -7.6822685431       22.6274925663       23.5413543438  TIP3      2740            0.0000000000
     33135      2940  TIP3      H1             -6.7694030639       22.5047827828       23.8474436931  TIP3      2740            0.0000000000
     33136      2940  TIP3      H2             -7.6343472841       23.4087105783       22.9605655392  TIP3      2740            0.0000000000
     33137      2941  TIP3      OH2           -17.1175629169       27.3383031768       29.4787550864  TIP3      2741            0.0000000000
     33138      2941  TIP3      H1            -16.4626517993       27.2456654616       28.7594101143  TIP3      2741            0.0000000000
     33139      2941  TIP3      H2            -17.0734167890       26.4606223825       29.8997700174  TIP3      2741            0.0000000000
     33140      2942  TIP3      OH2           -10.1929832902       29.4448372363       22.6184575330  TIP3      2742            0.0000000000
     33141      2942  TIP3      H1            -10.4881847528       30.2419433926       23.1097110693  TIP3      2742            0.0000000000
     33142      2942  TIP3      H2            -10.8095586621       28.7519592375       22.9539420855  TIP3      2742            0.0000000000
     33143      2943  TIP3      OH2           -20.1362602028       25.7451360022       34.7127696194  TIP3      2743            0.0000000000
     33144      2943  TIP3      H1            -19.9680613648       25.2918819489       35.5627373151  TIP3      2743            0.0000000000
     33145      2943  TIP3      H2            -20.7503222588       25.1242803461       34.2772092205  TIP3      2743            0.0000000000
     33146      2944  TIP3      OH2           -13.1266608660       25.2878790539       36.8856345775  TIP3      2744            0.0000000000
     33147      2944  TIP3      H1            -13.4408683837       24.9631884694       36.0297674771  TIP3      2744            0.0000000000
     33148      2944  TIP3      H2            -12.2064993948       24.9571733401       36.8928326131  TIP3      2744            0.0000000000
     33149      2945  TIP3      OH2            -8.4343953979       30.6726756832       34.8126811974  TIP3      2745            0.0000000000
     33150      2945  TIP3      H1             -9.3807183216       30.7787908974       34.6231671885  TIP3      2745            0.0000000000
     33151      2945  TIP3      H2             -8.4802595781       30.8920705132       35.7610342458  TIP3      2745            0.0000000000
     33152      2946  TIP3      OH2            -2.7590560324       22.7990955291       23.2365857895  TIP3      2746            0.0000000000
     33153      2946  TIP3      H1             -3.3347347769       22.4588804464       22.5214634021  TIP3      2746            0.0000000000
     33154      2946  TIP3      H2             -2.7106692251       23.7146319553       22.9626557767  TIP3      2746            0.0000000000
     33155      2947  TIP3      OH2            -2.7715596436       28.6240952983       36.0357747250  TIP3      2747            0.0000000000
     33156      2947  TIP3      H1             -3.6646974283       28.8632940682       35.6908537941  TIP3      2747            0.0000000000
     33157      2947  TIP3      H2             -2.2353498108       28.6035396667       35.2167860555  TIP3      2747            0.0000000000
     33158      2948  TIP3      OH2            -4.5134160878       31.6107555938       23.6516538452  TIP3      2748            0.0000000000
     33159      2948  TIP3      H1             -4.8506139039       30.7713285099       23.9780013932  TIP3      2748            0.0000000000
     33160      2948  TIP3      H2             -4.1883910058       31.4476295071       22.7597689615  TIP3      2748            0.0000000000
     33161      2949  TIP3      OH2            -7.2726640516       26.4518263468       30.7321595045  TIP3      2749            0.0000000000
     33162      2949  TIP3      H1             -8.2122919975       26.2391715881       30.6258882588  TIP3      2749            0.0000000000
     33163      2949  TIP3      H2             -6.8457730385       25.6846396946       30.3060913679  TIP3      2749            0.0000000000
     33164      2950  TIP3      OH2           -14.7277677385       30.7626994634       26.8161453115  TIP3      2750            0.0000000000
     33165      2950  TIP3      H1            -14.2548094755       31.5917213607       26.6559020385  TIP3      2750            0.0000000000
     33166      2950  TIP3      H2            -15.6214735755       30.9877712947       26.5282212322  TIP3      2750            0.0000000000
     33167      2951  TIP3      OH2           -13.3532250117       28.4488435223       26.3284573821  TIP3      2751            0.0000000000
     33168      2951  TIP3      H1            -13.6660944244       29.3629882042       26.4606859932  TIP3      2751            0.0000000000
     33169      2951  TIP3      H2            -14.0476128210       27.9451469371       26.7977731275  TIP3      2751            0.0000000000
     33170      2952  TIP3      OH2           -12.9132466110       32.6198248633       32.7941102476  TIP3      2752            0.0000000000
     33171      2952  TIP3      H1            -12.4480761440       33.4146005499       32.4811884173  TIP3      2752            0.0000000000
     33172      2952  TIP3      H2            -12.2534546552       32.2736446418       33.4227621008  TIP3      2752            0.0000000000
     33173      2953  TIP3      OH2           -14.6462198755       33.4185710564       25.8548408308  TIP3      2753            0.0000000000
     33174      2953  TIP3      H1            -15.5981715007       33.5414309801       26.0519957395  TIP3      2753            0.0000000000
     33175      2953  TIP3      H2            -14.2906372973       34.2461025260       26.2421998011  TIP3      2753            0.0000000000
     33176      2954  TIP3      OH2            -9.3201684545       28.6603411282       32.4045526575  TIP3      2754            0.0000000000
     33177      2954  TIP3      H1             -9.7027711932       28.4213632185       33.2788912600  TIP3      2754            0.0000000000
     33178      2954  TIP3      H2             -8.7494512525       27.8951594686       32.2133467916  TIP3      2754            0.0000000000
     33179      2955  TIP3      OH2            -6.5299955487       33.1182436798       34.8345861507  TIP3      2755            0.0000000000
     33180      2955  TIP3      H1             -7.3158264823       32.7085199364       34.4422648870  TIP3      2755            0.0000000000
     33181      2955  TIP3      H2             -6.4068927593       33.9281045288       34.2716526013  TIP3      2755            0.0000000000
     33182      2956  TIP3      OH2           -18.4891078231       20.4543473680       34.2605834128  TIP3      2756            0.0000000000
     33183      2956  TIP3      H1            -19.3957041788       20.8070842247       34.2451102522  TIP3      2756            0.0000000000
     33184      2956  TIP3      H2            -18.6002877377       19.6106694403       34.7273951073  TIP3      2756            0.0000000000
     33185      2957  TIP3      OH2            -6.2675857294       28.3285639077       23.7305494655  TIP3      2757            0.0000000000
     33186      2957  TIP3      H1             -6.5083770547       27.5426347325       24.2641078196  TIP3      2757            0.0000000000
     33187      2957  TIP3      H2             -5.3107127950       28.3712981828       23.8879806598  TIP3      2757            0.0000000000
     33188      2958  TIP3      OH2           -18.9040274804       32.4519990387       32.5913571550  TIP3      2758            0.0000000000
     33189      2958  TIP3      H1            -18.8713262729       31.5218340320       32.4172493454  TIP3      2758            0.0000000000
     33190      2958  TIP3      H2            -18.7179344137       32.6706744108       33.5191752635  TIP3      2758            0.0000000000
     33191      2959  TIP3      OH2           -14.3071395264       30.3822904796       22.5660370968  TIP3      2759            0.0000000000
     33192      2959  TIP3      H1            -13.9786469827       29.8066805289       23.2800458452  TIP3      2759            0.0000000000
     33193      2959  TIP3      H2            -14.1008206479       31.2980710292       22.8551033794  TIP3      2759            0.0000000000
     33194      2960  TIP3      OH2           -17.5422537367       27.5106096302       22.9579309029  TIP3      2760            0.0000000000
     33195      2960  TIP3      H1            -18.2873079201       27.9142598985       23.4469238383  TIP3      2760            0.0000000000
     33196      2960  TIP3      H2            -17.1180295585       28.3140984760       22.6153990171  TIP3      2760            0.0000000000
     33197      2961  TIP3      OH2            -9.7575838589       20.2285497895       33.2315642347  TIP3      2761            0.0000000000
     33198      2961  TIP3      H1             -9.0409355180       20.2893110457       33.8722585160  TIP3      2761            0.0000000000
     33199      2961  TIP3      H2            -10.1402557287       19.3520222725       33.4351648193  TIP3      2761            0.0000000000
     33200      2962  TIP3      OH2            -8.9525498897       19.7894162914       24.2684276971  TIP3      2762            0.0000000000
     33201      2962  TIP3      H1             -8.8002864501       20.3701430247       23.5122523287  TIP3      2762            0.0000000000
     33202      2962  TIP3      H2             -8.4307840066       20.2393871586       24.9501249219  TIP3      2762            0.0000000000
     33203      2963  TIP3      OH2           -11.3626456630       31.9127832522       23.0087496297  TIP3      2763            0.0000000000
     33204      2963  TIP3      H1            -12.1214299357       32.4916991573       23.2212921252  TIP3      2763            0.0000000000
     33205      2963  TIP3      H2            -10.7797086128       32.4968966984       22.5057957364  TIP3      2763            0.0000000000
     33206      2964  TIP3      OH2           -11.8124811315       21.5656439744       25.1376267386  TIP3      2764            0.0000000000
     33207      2964  TIP3      H1            -11.0054065988       22.1216448599       25.1678103172  TIP3      2764            0.0000000000
     33208      2964  TIP3      H2            -12.0486112155       21.4221105970       26.0759714935  TIP3      2764            0.0000000000
     33209      2965  TIP3      OH2           -11.2274479290       22.5736414060       34.3276358585  TIP3      2765            0.0000000000
     33210      2965  TIP3      H1            -11.1562079578       23.1334463233       35.1247050251  TIP3      2765            0.0000000000
     33211      2965  TIP3      H2            -10.5657168757       21.8798804579       34.4215081577  TIP3      2765            0.0000000000
     33212      2966  TIP3      OH2           -10.9236805953       18.5962305264       25.9861969302  TIP3      2766            0.0000000000
     33213      2966  TIP3      H1            -11.2589211305       19.2299645271       26.6493717590  TIP3      2766            0.0000000000
     33214      2966  TIP3      H2            -10.2279432374       19.1614216641       25.5723396941  TIP3      2766            0.0000000000
     33215      2967  TIP3      OH2           -13.9272335068       32.9961922382       23.1471376625  TIP3      2767            0.0000000000
     33216      2967  TIP3      H1            -13.8116894991       33.8116123708       22.5966844657  TIP3      2767            0.0000000000
     33217      2967  TIP3      H2            -14.1715519224       33.3455835766       24.0334549921  TIP3      2767            0.0000000000
     33218      2968  TIP3      OH2            -5.0467316655       20.4535912483       35.1710148973  TIP3      2768            0.0000000000
     33219      2968  TIP3      H1             -5.9777306439       20.7596626405       35.0430195912  TIP3      2768            0.0000000000
     33220      2968  TIP3      H2             -4.7503080236       20.4306214765       34.2457507850  TIP3      2768            0.0000000000
     33221      2969  TIP3      OH2            -6.4364663998       24.2349977583       29.1858233706  TIP3      2769            0.0000000000
     33222      2969  TIP3      H1             -7.2588105613       23.7870147550       28.9023862474  TIP3      2769            0.0000000000
     33223      2969  TIP3      H2             -5.9568901049       23.5428175660       29.6925882271  TIP3      2769            0.0000000000
     33224      2970  TIP3      OH2           -17.0113483365       30.1413273031       21.8252400561  TIP3      2770            0.0000000000
     33225      2970  TIP3      H1            -16.3617516453       30.8114609547       22.0786445232  TIP3      2770            0.0000000000
     33226      2970  TIP3      H2            -16.5669004440       29.7501698246       21.0503243270  TIP3      2770            0.0000000000
     33227      2971  TIP3      OH2            -5.2941798606       33.5032183647       30.6370807849  TIP3      2771            0.0000000000
     33228      2971  TIP3      H1             -5.4016595108       34.3285761449       30.0958584741  TIP3      2771            0.0000000000
     33229      2971  TIP3      H2             -4.3673610508       33.7160617905       30.9272955174  TIP3      2771            0.0000000000
     33230      2972  TIP3      OH2           -17.8835898684       17.6123156829       29.6537439933  TIP3      2772            0.0000000000
     33231      2972  TIP3      H1            -18.0795487449       17.6289402178       28.6899914268  TIP3      2772            0.0000000000
     33232      2972  TIP3      H2            -18.2960607687       16.7598235780       29.9082562099  TIP3      2772            0.0000000000
     33233      2973  TIP3      OH2           -18.9671303842       31.5411974196       25.7599955530  TIP3      2773            0.0000000000
     33234      2973  TIP3      H1            -19.8172142202       32.0013553688       25.7722207447  TIP3      2773            0.0000000000
     33235      2973  TIP3      H2            -18.4201858717       32.0020952440       25.1287453447  TIP3      2773            0.0000000000
     33236      2974  TIP3      OH2           -19.7031723557       34.1722330807       37.0602569195  TIP3      2774            0.0000000000
     33237      2974  TIP3      H1            -19.1296906715       33.9927228679       37.8332592432  TIP3      2774            0.0000000000
     33238      2974  TIP3      H2            -20.1532231662       33.3231791556       36.9299809986  TIP3      2774            0.0000000000
     33239      2975  TIP3      OH2           -15.0267259581       33.0907045620       38.7098483807  TIP3      2775            0.0000000000
     33240      2975  TIP3      H1            -14.2699223273       32.5952176321       39.0356415358  TIP3      2775            0.0000000000
     33241      2975  TIP3      H2            -15.0478090719       32.8320229227       37.7717585823  TIP3      2775            0.0000000000
     33242      2976  TIP3      OH2            -8.5605999381       31.5010830665       37.4705351433  TIP3      2776            0.0000000000
     33243      2976  TIP3      H1             -8.8588954972       30.5901776856       37.6871704412  TIP3      2776            0.0000000000
     33244      2976  TIP3      H2             -7.7392133813       31.5813746543       37.9826979700  TIP3      2776            0.0000000000
     33245      2977  TIP3      OH2           -19.7966206439       27.9749341833       38.0529983212  TIP3      2777            0.0000000000
     33246      2977  TIP3      H1            -19.6511721851       27.0469634841       37.7900246693  TIP3      2777            0.0000000000
     33247      2977  TIP3      H2            -20.5743283147       28.2037723796       37.5211868800  TIP3      2777            0.0000000000
     33248      2978  TIP3      OH2           -13.0790565718       27.9550177518       37.4639359272  TIP3      2778            0.0000000000
     33249      2978  TIP3      H1            -13.4226754303       28.2539827554       36.6042594572  TIP3      2778            0.0000000000
     33250      2978  TIP3      H2            -13.0206414209       26.9717197734       37.3604760433  TIP3      2778            0.0000000000
     33251      2979  TIP3      OH2            -7.4024380870       27.8103090444       34.8393177367  TIP3      2779            0.0000000000
     33252      2979  TIP3      H1             -6.6052926605       28.3802324458       34.8133085122  TIP3      2779            0.0000000000
     33253      2979  TIP3      H2             -8.1033328189       28.4706630035       34.9116628641  TIP3      2779            0.0000000000
     33254      2980  TIP3      OH2           -18.8902277813       25.1808047374       37.4606010511  TIP3      2780            0.0000000000
     33255      2980  TIP3      H1            -18.4687869360       24.3190042715       37.3752115213  TIP3      2780            0.0000000000
     33256      2980  TIP3      H2            -19.1210182748       25.1885070848       38.4038623807  TIP3      2780            0.0000000000
     33257      2981  TIP3      OH2           -14.2090511640       26.3246200244       22.5007300896  TIP3      2781            0.0000000000
     33258      2981  TIP3      H1            -14.7202806293       25.8242565114       23.1602107010  TIP3      2781            0.0000000000
     33259      2981  TIP3      H2            -13.9444246376       25.6408842752       21.8720342439  TIP3      2781            0.0000000000
     33260      2982  TIP3      OH2           -14.9854422539       24.1138804920       34.8121309940  TIP3      2782            0.0000000000
     33261      2982  TIP3      H1            -15.5821824348       24.8336773991       35.0769329833  TIP3      2782            0.0000000000
     33262      2982  TIP3      H2            -14.6014947675       24.5044132166       34.0086788345  TIP3      2782            0.0000000000
     33263      2983  TIP3      OH2            -9.9183410435       26.6978604003       38.1511183294  TIP3      2783            0.0000000000
     33264      2983  TIP3      H1             -8.9600426360       26.6893393329       38.0320234383  TIP3      2783            0.0000000000
     33265      2983  TIP3      H2            -10.0909603920       25.9293207453       38.7208258697  TIP3      2783            0.0000000000
     33266      2984  TIP3      OH2           -14.5879286179       21.5055531241       35.8711322003  TIP3      2784            0.0000000000
     33267      2984  TIP3      H1            -14.4690303224       20.7962833145       35.2115757232  TIP3      2784            0.0000000000
     33268      2984  TIP3      H2            -14.6300208661       22.3160332749       35.3229128134  TIP3      2784            0.0000000000
     33269      2985  TIP3      OH2           -14.1810977960       19.8867165782       33.4265638037  TIP3      2785            0.0000000000
     33270      2985  TIP3      H1            -13.6737817776       20.3516676287       32.7188855362  TIP3      2785            0.0000000000
     33271      2985  TIP3      H2            -15.0754137756       19.8098287538       33.0220639400  TIP3      2785            0.0000000000
     33272      2986  TIP3      OH2           -12.6449938618       25.3794461335       33.6707592563  TIP3      2786            0.0000000000
     33273      2986  TIP3      H1            -11.8894017589       25.2117993081       33.0971402388  TIP3      2786            0.0000000000
     33274      2986  TIP3      H2            -13.0099249439       26.2130501188       33.3313448338  TIP3      2786            0.0000000000
     33275      2987  TIP3      OH2            -8.2486479583       23.1224739987       38.6296227054  TIP3      2787            0.0000000000
     33276      2987  TIP3      H1             -8.0111566494       22.1875414772       38.5393598489  TIP3      2787            0.0000000000
     33277      2987  TIP3      H2             -7.3862855246       23.5698511315       38.6631581860  TIP3      2787            0.0000000000
     33278      2988  TIP3      OH2            -6.9070612111       25.9208151248       36.7989467342  TIP3      2788            0.0000000000
     33279      2988  TIP3      H1             -7.1634389692       26.6394467006       36.1827885307  TIP3      2788            0.0000000000
     33280      2988  TIP3      H2             -5.9508985256       25.8928448105       36.6098755128  TIP3      2788            0.0000000000
     33281      2989  TIP3      OH2           -16.1246447525       22.7570006453       37.7925529893  TIP3      2789            0.0000000000
     33282      2989  TIP3      H1            -16.8937265031       22.1779280921       37.6256714352  TIP3      2789            0.0000000000
     33283      2989  TIP3      H2            -15.4707757178       22.3859697304       37.1707197627  TIP3      2789            0.0000000000
     33284      2990  TIP3      OH2           -13.3912051182       17.3236211155       33.8109443536  TIP3      2790            0.0000000000
     33285      2990  TIP3      H1            -13.5772757406       18.2868406299       33.7182112003  TIP3      2790            0.0000000000
     33286      2990  TIP3      H2            -14.1418989303       16.9562985426       33.3125694387  TIP3      2790            0.0000000000
     33287      2991  TIP3      OH2           -12.1227878003       21.6522590083       37.4436209924  TIP3      2791            0.0000000000
     33288      2991  TIP3      H1            -12.4387524416       21.4199610342       38.3385246789  TIP3      2791            0.0000000000
     33289      2991  TIP3      H2            -12.9040171220       21.4498812741       36.9015406934  TIP3      2791            0.0000000000
     33290      2992  TIP3      OH2            -9.4009567114       20.7995525958       36.5392783157  TIP3      2792            0.0000000000
     33291      2992  TIP3      H1            -10.3672741453       20.8508124721       36.6419243506  TIP3      2792            0.0000000000
     33292      2992  TIP3      H2             -9.1408037991       20.1555686086       37.2226119625  TIP3      2792            0.0000000000
     33293      2993  TIP3      OH2            -7.7617176511       19.4049065582       38.4620303049  TIP3      2793            0.0000000000
     33294      2993  TIP3      H1             -7.9067855080       18.4409905010       38.4459079007  TIP3      2793            0.0000000000
     33295      2993  TIP3      H2             -8.0923723109       19.7259452101       39.3248241445  TIP3      2793            0.0000000000
     33296      2994  TIP3      OH2           -18.0511416553       20.6941359162       37.5489161197  TIP3      2794            0.0000000000
     33297      2994  TIP3      H1            -17.8008546155       19.9588927024       36.9629096623  TIP3      2794            0.0000000000
     33298      2994  TIP3      H2            -18.1366190877       20.2455941935       38.4135957953  TIP3      2794            0.0000000000
     33299      2995  TIP3      OH2           -13.1786963186       16.7185654311       36.5151566900  TIP3      2795            0.0000000000
     33300      2995  TIP3      H1            -12.4999563764       16.0144510665       36.4991114042  TIP3      2795            0.0000000000
     33301      2995  TIP3      H2            -13.2961620532       16.8584107769       35.5539263401  TIP3      2795            0.0000000000
     33302      2996  TIP3      OH2           -12.8168091269       18.3301718523       38.6329292271  TIP3      2796            0.0000000000
     33303      2996  TIP3      H1            -12.9911434247       17.8242298993       37.8006736605  TIP3      2796            0.0000000000
     33304      2996  TIP3      H2            -13.4161813825       19.0948851836       38.5322577435  TIP3      2796            0.0000000000
     33305      2997  TIP3      OH2           -13.3404724458       35.2482953930       21.7930468997  TIP3      2797            0.0000000000
     33306      2997  TIP3      H1            -12.3865235925       35.3598844068       21.8504502570  TIP3      2797            0.0000000000
     33307      2997  TIP3      H2            -13.5906751696       35.8549290477       21.0944087679  TIP3      2797            0.0000000000
     33308      2998  TIP3      OH2           -19.7399598207       29.7794369870       21.3066811581  TIP3      2798            0.0000000000
     33309      2998  TIP3      H1            -18.7797076905       29.9329662227       21.4407558559  TIP3      2798            0.0000000000
     33310      2998  TIP3      H2            -19.6625751684       29.1973759276       20.5290198733  TIP3      2798            0.0000000000
     33311      2999  TIP3      OH2           -20.9694078277       35.2168742547       26.2333257668  TIP3      2799            0.0000000000
     33312      2999  TIP3      H1            -21.7280104079       34.7679236719       25.7869531894  TIP3      2799            0.0000000000
     33313      2999  TIP3      H2            -20.7424867074       34.5660022800       26.9205939436  TIP3      2799            0.0000000000
     33314      3000  TIP3      OH2           -20.1777236977       33.3232343244       28.1036954339  TIP3      2800            0.0000000000
     33315      3000  TIP3      H1            -20.5541967713       32.4608927148       28.3274913397  TIP3      2800            0.0000000000
     33316      3000  TIP3      H2            -19.9725167998       33.6823405551       28.9846670943  TIP3      2800            0.0000000000
     33317      3001  TIP3      OH2            -2.5295548488       33.9690363578       31.0887810847  TIP3      2801            0.0000000000
     33318      3001  TIP3      H1             -2.6380942060       34.3210842521       31.9881032747  TIP3      2801            0.0000000000
     33319      3001  TIP3      H2             -2.0093704525       34.7057238049       30.7275816039  TIP3      2801            0.0000000000
     33320      3002  TIP3      OH2            -3.0896060788       33.7032223902       34.0033106622  TIP3      2802            0.0000000000
     33321      3002  TIP3      H1             -3.5123388477       32.9189669694       33.6199690438  TIP3      2802            0.0000000000
     33322      3002  TIP3      H2             -2.5653598351       33.2946674723       34.7159332831  TIP3      2802            0.0000000000
     33323      3003  TIP3      OH2            -4.6442460792       29.4718135658       38.6606089283  TIP3      2803            0.0000000000
     33324      3003  TIP3      H1             -5.5375587985       29.4069842734       39.0296467051  TIP3      2803            0.0000000000
     33325      3003  TIP3      H2             -4.2415269450       30.2518259817       39.0860662904  TIP3      2803            0.0000000000
     33326      3004  TIP3      OH2            -3.3045276155       27.7373961955       24.0502369179  TIP3      2804            0.0000000000
     33327      3004  TIP3      H1             -2.4654423583       28.1746200214       24.2711889443  TIP3      2804            0.0000000000
     33328      3004  TIP3      H2             -3.3288179270       27.0626976714       24.7659242998  TIP3      2804            0.0000000000
     33329      3005  TIP3      OH2            -2.9452415694       25.8495698951       25.9502369241  TIP3      2805            0.0000000000
     33330      3005  TIP3      H1             -3.7087458835       25.3633642366       26.3408115907  TIP3      2805            0.0000000000
     33331      3005  TIP3      H2             -2.3665748235       25.9968851619       26.7272735333  TIP3      2805            0.0000000000
     33332      3006  TIP3      OH2            -3.1972218374       28.5535917104       30.9659526991  TIP3      2806            0.0000000000
     33333      3006  TIP3      H1             -2.3902359799       28.1544010803       30.5894933468  TIP3      2806            0.0000000000
     33334      3006  TIP3      H2             -3.0236430389       29.4987813987       30.7884670607  TIP3      2806            0.0000000000
     33335      3007  TIP3      OH2            -4.6249070060       31.4612722054       33.2669665814  TIP3      2807            0.0000000000
     33336      3007  TIP3      H1             -5.2553359564       31.7660792262       33.9523681298  TIP3      2807            0.0000000000
     33337      3007  TIP3      H2             -5.0744520865       30.8316644239       32.6825193502  TIP3      2807            0.0000000000
     33338      3008  TIP3      OH2            -4.2191183353       22.9194753592       20.8975246184  TIP3      2808            0.0000000000
     33339      3008  TIP3      H1             -4.3071432815       23.5418475423       20.1788327151  TIP3      2808            0.0000000000
     33340      3008  TIP3      H2             -4.4773137526       22.0897212473       20.4491980017  TIP3      2808            0.0000000000
     33341      3009  TIP3      OH2            -5.1213035958       24.3328408321       26.5603370969  TIP3      2809            0.0000000000
     33342      3009  TIP3      H1             -5.2953573634       23.3789649956       26.5038299345  TIP3      2809            0.0000000000
     33343      3009  TIP3      H2             -5.4682638441       24.5430439380       27.4475381238  TIP3      2809            0.0000000000
     33344      3010  TIP3      OH2           -20.1271514857       26.4489445679       30.6172817108  TIP3      2810            0.0000000000
     33345      3010  TIP3      H1            -19.9625895296       26.3371352105       29.6548718054  TIP3      2810            0.0000000000
     33346      3010  TIP3      H2            -19.2442631726       26.2174960873       30.9612089870  TIP3      2810            0.0000000000
     33347      3011  TIP3      OH2            -4.2912770328       26.3141841863       36.2589342569  TIP3      2811            0.0000000000
     33348      3011  TIP3      H1             -3.6825913041       25.5508232780       36.3721565723  TIP3      2811            0.0000000000
     33349      3011  TIP3      H2             -3.6730813308       27.0738928156       36.2378644940  TIP3      2811            0.0000000000
     33350      3012  TIP3      OH2            -2.7776555822       24.1759075280       36.8895345958  TIP3      2812            0.0000000000
     33351      3012  TIP3      H1             -3.6611567926       23.7774094716       36.7370863719  TIP3      2812            0.0000000000
     33352      3012  TIP3      H2             -2.2044772095       23.3928900176       36.8123108075  TIP3      2812            0.0000000000
     33353      3013  TIP3      OH2            -5.4640118383       21.9172695002       25.0467273886  TIP3      2813            0.0000000000
     33354      3013  TIP3      H1             -5.1858910729       20.9807877869       25.1292933095  TIP3      2813            0.0000000000
     33355      3013  TIP3      H2             -4.6798300277       22.3088115479       24.6473780117  TIP3      2813            0.0000000000
     33356      3014  TIP3      OH2            -4.8345068020       22.4581697861       30.4537772753  TIP3      2814            0.0000000000
     33357      3014  TIP3      H1             -3.8744586625       22.6869479853       30.4388905910  TIP3      2814            0.0000000000
     33358      3014  TIP3      H2             -5.0205305016       22.5966547752       31.3938583623  TIP3      2814            0.0000000000
     33359      3015  TIP3      OH2            -4.7674808873       23.1750590822       33.2389718613  TIP3      2815            0.0000000000
     33360      3015  TIP3      H1             -5.6515734461       23.4672854259       33.5487140404  TIP3      2815            0.0000000000
     33361      3015  TIP3      H2             -4.3335868479       24.0346013193       33.0124127393  TIP3      2815            0.0000000000
     33362      3016  TIP3      OH2           -20.5144028395       21.7201049076       36.7730337038  TIP3      2816            0.0000000000
     33363      3016  TIP3      H1            -19.5777376123       21.5023450415       36.9581045021  TIP3      2816            0.0000000000
     33364      3016  TIP3      H2            -20.9731793528       20.8931864887       37.0371838843  TIP3      2816            0.0000000000
     33365      3017  TIP3      OH2            -2.5115986656       17.2355777514       38.5552639291  TIP3      2817            0.0000000000
     33366      3017  TIP3      H1             -2.1185451360       16.5886361706       37.9412363317  TIP3      2817            0.0000000000
     33367      3017  TIP3      H2             -2.3815013977       18.0612648071       38.0359761070  TIP3      2817            0.0000000000
     33368      3018  TIP3      OH2            -4.7873314154       19.1847154775       25.0270587950  TIP3      2818            0.0000000000
     33369      3018  TIP3      H1             -4.5908561264       18.7539852823       25.8871718918  TIP3      2818            0.0000000000
     33370      3018  TIP3      H2             -5.4283761597       18.5595057423       24.6135135338  TIP3      2818            0.0000000000
     33371      3019  TIP3      OH2           -19.3155232918       20.0069738885       29.6126578195  TIP3      2819            0.0000000000
     33372      3019  TIP3      H1            -18.8554980923       19.1818343176       29.8722568272  TIP3      2819            0.0000000000
     33373      3019  TIP3      H2            -18.7660541974       20.7006170559       29.9991996197  TIP3      2819            0.0000000000
     33374      3020  TIP3      OH2           -21.0343313707       23.0105302230       30.6491189631  TIP3      2820            0.0000000000
     33375      3020  TIP3      H1            -20.4706624917       22.7575267543       29.8902922590  TIP3      2820            0.0000000000
     33376      3020  TIP3      H2            -20.5656122235       23.8126486788       30.9200753429  TIP3      2820            0.0000000000
     33377      3021  TIP3      OH2            -2.9905361439       19.3156183396       36.9465317238  TIP3      2821            0.0000000000
     33378      3021  TIP3      H1             -3.9078437446       19.6318662034       36.8512051122  TIP3      2821            0.0000000000
     33379      3021  TIP3      H2             -2.9361868394       18.8008577249       36.1233764528  TIP3      2821            0.0000000000
     33380      3022  TIP3      OH2           -20.6718339916       19.3245747329       24.7338045003  TIP3      2822            0.0000000000
     33381      3022  TIP3      H1            -21.6212178156       19.4407873418       24.5728159115  TIP3      2822            0.0000000000
     33382      3022  TIP3      H2            -20.2727349188       19.7324209955       23.9537355869  TIP3      2822            0.0000000000
     33383      3023  TIP3      OH2            -5.9618697794       34.1606682159       26.6113932365  TIP3      2823            0.0000000000
     33384      3023  TIP3      H1             -5.2231841142       33.9094022513       26.0365104388  TIP3      2823            0.0000000000
     33385      3023  TIP3      H2             -5.4824877912       34.7163087605       27.2769380953  TIP3      2823            0.0000000000
     33386      3024  TIP3      OH2           -20.7214177951       17.9171959458       33.0151756322  TIP3      2824            0.0000000000
     33387      3024  TIP3      H1            -21.3884484264       17.7284976817       33.6985589813  TIP3      2824            0.0000000000
     33388      3024  TIP3      H2            -21.1776819400       18.5937520591       32.4749971645  TIP3      2824            0.0000000000
     33389      3025  TIP3      OH2           -18.4905110708       31.0989173923       37.1333263502  TIP3      2825            0.0000000000
     33390      3025  TIP3      H1            -19.3532804295       31.3497207631       36.7638226696  TIP3      2825            0.0000000000
     33391      3025  TIP3      H2            -18.7138497352       31.0435325902       38.0747393025  TIP3      2825            0.0000000000
     33392      3026  TIP3      OH2           -15.6607271135       32.1149140761       33.3956856954  TIP3      2826            0.0000000000
     33393      3026  TIP3      H1            -15.8608238169       33.0505827312       33.1941229381  TIP3      2826            0.0000000000
     33394      3026  TIP3      H2            -14.6896026448       32.1897452813       33.1826788864  TIP3      2826            0.0000000000
     33395      3027  TIP3      OH2           -11.2679387378       33.5616610340       36.3578234099  TIP3      2827            0.0000000000
     33396      3027  TIP3      H1            -11.1250665213       33.2090901375       37.2628790015  TIP3      2827            0.0000000000
     33397      3027  TIP3      H2            -10.3661346285       33.8633196023       36.1121679156  TIP3      2827            0.0000000000
     33398      3028  TIP3      OH2            -8.9518491391       34.8718435856       35.6361864432  TIP3      2828            0.0000000000
     33399      3028  TIP3      H1             -8.2207136040       34.2879050991       35.4159442263  TIP3      2828            0.0000000000
     33400      3028  TIP3      H2             -8.6106578533       35.2519116792       36.4765340297  TIP3      2828            0.0000000000
     33401      3029  TIP3      OH2            -3.9552066290       17.4264651273       34.7837120942  TIP3      2829            0.0000000000
     33402      3029  TIP3      H1             -4.7811481037       17.7306489106       34.3706445842  TIP3      2829            0.0000000000
     33403      3029  TIP3      H2             -3.7855380797       16.6073611316       34.2624588532  TIP3      2829            0.0000000000
     33404      3030  TIP3      OH2           -18.2233995819       35.2517365727       33.4478006128  TIP3      2830            0.0000000000
     33405      3030  TIP3      H1            -18.8746321553       35.8678406282       33.0652513404  TIP3      2830            0.0000000000
     33406      3030  TIP3      H2            -18.4851392433       35.2397446162       34.3774083457  TIP3      2830            0.0000000000
     33407      3031  TIP3      OH2           -15.7106155586       34.9005665580       32.5161863512  TIP3      2831            0.0000000000
     33408      3031  TIP3      H1            -16.5794020274       35.1296593883       32.9187717410  TIP3      2831            0.0000000000
     33409      3031  TIP3      H2            -15.7188180260       35.5207475275       31.7613506387  TIP3      2831            0.0000000000
     33410      3032  TIP3      OH2           -10.9467678079       34.8568607455       31.7021781854  TIP3      2832            0.0000000000
     33411      3032  TIP3      H1            -11.4322758773       35.3889131162       31.0472960002  TIP3      2832            0.0000000000
     33412      3032  TIP3      H2            -10.8480147281       35.5154911705       32.4275856801  TIP3      2832            0.0000000000
     33413      3033  TIP3      OH2            -8.6575156397       33.6242267394       32.6657545062  TIP3      2833            0.0000000000
     33414      3033  TIP3      H1             -9.5343616746       33.9450507615       32.3686091966  TIP3      2833            0.0000000000
     33415      3033  TIP3      H2             -8.2111392945       34.4995151659       32.6643082032  TIP3      2833            0.0000000000
     33416      3034  TIP3      OH2            -6.3880854790       35.1433637102       33.0657905133  TIP3      2834            0.0000000000
     33417      3034  TIP3      H1             -6.2346452780       36.1063810147       32.9032641855  TIP3      2834            0.0000000000
     33418      3034  TIP3      H2             -5.9088108180       34.9552120420       32.2187970677  TIP3      2834            0.0000000000
     33419      3035  TIP3      OH2           -18.6996439372       34.0151489036       30.3810498717  TIP3      2835            0.0000000000
     33420      3035  TIP3      H1            -18.7807601966       33.5721244779       31.2529607917  TIP3      2835            0.0000000000
     33421      3035  TIP3      H2            -17.8751597435       33.6449730907       29.9989885569  TIP3      2835            0.0000000000
     33422      3036  TIP3      OH2           -16.6328451342       32.7379084695       29.0792500020  TIP3      2836            0.0000000000
     33423      3036  TIP3      H1            -16.7662637584       31.7928187590       29.2339459700  TIP3      2836            0.0000000000
     33424      3036  TIP3      H2            -15.7498865073       32.8811003830       29.4849637496  TIP3      2836            0.0000000000
     33425      3037  TIP3      OH2           -14.0382607333       33.1910773113       29.9359632498  TIP3      2837            0.0000000000
     33426      3037  TIP3      H1            -13.8436284951       32.2817646983       29.6605891268  TIP3      2837            0.0000000000
     33427      3037  TIP3      H2            -13.9623576703       33.1497816507       30.8997113081  TIP3      2837            0.0000000000
     33428      3038  TIP3      OH2           -10.5719304451       18.8577837598       29.0440671739  TIP3      2838            0.0000000000
     33429      3038  TIP3      H1            -11.2388948063       18.2179534116       29.3457768650  TIP3      2838            0.0000000000
     33430      3038  TIP3      H2            -10.0098941120       18.3165465978       28.4800934259  TIP3      2838            0.0000000000
     33431      3039  TIP3      OH2            -5.4277072491       16.9011612101       29.1352380604  TIP3      2839            0.0000000000
     33432      3039  TIP3      H1             -4.8162879032       17.4964965167       28.6335908547  TIP3      2839            0.0000000000
     33433      3039  TIP3      H2             -6.3080061437       17.2613148042       28.8931966320  TIP3      2839            0.0000000000
     33434      3040  TIP3      OH2            -3.7699231930       18.1641501535       27.3980995496  TIP3      2840            0.0000000000
     33435      3040  TIP3      H1             -3.0827605180       17.5784659106       26.9882139221  TIP3      2840            0.0000000000
     33436      3040  TIP3      H2             -3.2501597527       18.9903703931       27.5321053159  TIP3      2840            0.0000000000
     33437      3041  TIP3      OH2           -18.1912721049       17.4921284181       26.9025623983  TIP3      2841            0.0000000000
     33438      3041  TIP3      H1            -19.0096853378       17.2854686873       26.4121237933  TIP3      2841            0.0000000000
     33439      3041  TIP3      H2            -17.7411493306       16.6251069601       26.8602392231  TIP3      2841            0.0000000000
     33440      3042  TIP3      OH2           -13.7107993752       17.3649912411       26.6764992243  TIP3      2842            0.0000000000
     33441      3042  TIP3      H1            -12.8345010340       17.7867150011       26.6275242153  TIP3      2842            0.0000000000
     33442      3042  TIP3      H2            -13.7600584741       17.1937992499       27.6181497134  TIP3      2842            0.0000000000
     33443      3043  TIP3      OH2            -8.0030292604       17.4220286095       28.3304482866  TIP3      2843            0.0000000000
     33444      3043  TIP3      H1             -8.0624984428       17.5461096349       27.3748053905  TIP3      2843            0.0000000000
     33445      3043  TIP3      H2             -8.3920566912       16.5203486162       28.4488626699  TIP3      2843            0.0000000000
     33446      3044  TIP3      OH2            -6.7410821715       17.5155330892       24.0566048172  TIP3      2844            0.0000000000
     33447      3044  TIP3      H1             -7.4957753226       18.0447456301       23.7859954457  TIP3      2844            0.0000000000
     33448      3044  TIP3      H2             -7.1167153924       16.6066405591       24.1570422916  TIP3      2844            0.0000000000
     33449      3045  TIP3      OH2           -12.5694478559       19.3862574063       23.5442400644  TIP3      2845            0.0000000000
     33450      3045  TIP3      H1            -12.3306327114       18.8706432132       24.3199358866  TIP3      2845            0.0000000000
     33451      3045  TIP3      H2            -12.5119432131       20.2776060608       23.9606862076  TIP3      2845            0.0000000000
     33452      3046  TIP3      OH2            -3.9606162192       34.0080257373       24.7393104687  TIP3      2846            0.0000000000
     33453      3046  TIP3      H1             -4.1315076948       33.2271206060       24.1641435132  TIP3      2846            0.0000000000
     33454      3046  TIP3      H2             -3.9973126979       34.7330721501       24.0599147410  TIP3      2846            0.0000000000
     33455      3047  TIP3      OH2           -18.3086895697       18.0257740285       36.3617143539  TIP3      2847            0.0000000000
     33456      3047  TIP3      H1            -18.6991039016       17.2305776633       36.7684659038  TIP3      2847            0.0000000000
     33457      3047  TIP3      H2            -17.4004203408       17.9834594759       36.7461833444  TIP3      2847            0.0000000000
     33458      3048  TIP3      OH2           -16.3079977613       17.4089118619       38.0092482122  TIP3      2848            0.0000000000
     33459      3048  TIP3      H1            -15.4154832457       17.0717555031       37.7912516433  TIP3      2848            0.0000000000
     33460      3048  TIP3      H2            -16.6822997696       16.6011477141       38.4109588775  TIP3      2848            0.0000000000
     33461      3049  TIP3      OH2            -7.8936700418       16.7210986374       38.1758383580  TIP3      2849            0.0000000000
     33462      3049  TIP3      H1             -7.8548142227       16.1786233887       38.9714937398  TIP3      2849            0.0000000000
     33463      3049  TIP3      H2             -6.9989771035       16.6586679092       37.7797697091  TIP3      2849            0.0000000000
     33464      3050  TIP3      OH2            -4.7098620744       32.7456050421       36.7991385757  TIP3      2850            0.0000000000
     33465      3050  TIP3      H1             -5.5044995827       32.6190729472       36.2428820482  TIP3      2850            0.0000000000
     33466      3050  TIP3      H2             -4.7926436452       33.7057693126       36.9928981951  TIP3      2850            0.0000000000
     33467      3051  TIP3      OH2             9.7507198867       26.6287621621       26.7768158211  TIP3      2851            0.0000000000
     33468      3051  TIP3      H1              9.7380718088       27.6072600953       26.7404428474  TIP3      2851            0.0000000000
     33469      3051  TIP3      H2              9.0434918946       26.4018228636       26.1482337945  TIP3      2851            0.0000000000
     33470      3052  TIP3      OH2             8.6060267967       25.8771354825       30.2720510793  TIP3      2852            0.0000000000
     33471      3052  TIP3      H1              8.5880960151       25.2291013181       30.9911503958  TIP3      2852            0.0000000000
     33472      3052  TIP3      H2              8.2543546394       25.3687995610       29.5207289741  TIP3      2852            0.0000000000
     33473      3053  TIP3      OH2             0.9558568320       25.5559759209       31.8224576900  TIP3      2853            0.0000000000
     33474      3053  TIP3      H1              1.0405622840       24.8668828751       32.5144751928  TIP3      2853            0.0000000000
     33475      3053  TIP3      H2              1.7065868000       26.1249665583       32.0464466011  TIP3      2853            0.0000000000
     33476      3054  TIP3      OH2            12.2842514666       28.8329455776       28.5529578611  TIP3      2854            0.0000000000
     33477      3054  TIP3      H1             11.8792804058       28.1098935685       29.0426181131  TIP3      2854            0.0000000000
     33478      3054  TIP3      H2             12.3156702721       29.5352948882       29.2280406850  TIP3      2854            0.0000000000
     33479      3055  TIP3      OH2             1.8848600682       29.9991861349       30.3207838578  TIP3      2855            0.0000000000
     33480      3055  TIP3      H1              1.5719586381       29.1314112313       30.0037054469  TIP3      2855            0.0000000000
     33481      3055  TIP3      H2              2.8382756607       29.8203646635       30.3673182752  TIP3      2855            0.0000000000
     33482      3056  TIP3      OH2            -1.4572755380       23.5737990887       25.8030105979  TIP3      2856            0.0000000000
     33483      3056  TIP3      H1             -1.9222895564       24.4314308007       25.7826723280  TIP3      2856            0.0000000000
     33484      3056  TIP3      H2             -2.0452063518       23.0115843768       25.2850660173  TIP3      2856            0.0000000000
     33485      3057  TIP3      OH2            -0.7688769909       25.7818488890       27.9479670774  TIP3      2857            0.0000000000
     33486      3057  TIP3      H1             -0.4951548621       24.9618519967       28.4003564665  TIP3      2857            0.0000000000
     33487      3057  TIP3      H2             -0.0632191869       25.8964899572       27.2931360922  TIP3      2857            0.0000000000
     33488      3058  TIP3      OH2             9.4038528747       33.9802423320       28.7846015403  TIP3      2858            0.0000000000
     33489      3058  TIP3      H1             10.0567292274       33.2960129438       28.4969678154  TIP3      2858            0.0000000000
     33490      3058  TIP3      H2              9.1940251567       33.6443281522       29.6587003002  TIP3      2858            0.0000000000
     33491      3059  TIP3      OH2             6.9769023770       28.2768389512       30.7476399597  TIP3      2859            0.0000000000
     33492      3059  TIP3      H1              7.3165758191       27.6509911620       30.0852448176  TIP3      2859            0.0000000000
     33493      3059  TIP3      H2              7.7910785492       28.4350246751       31.2580760185  TIP3      2859            0.0000000000
     33494      3060  TIP3      OH2            15.5713525368       19.9421429585       31.4632678596  TIP3      2860            0.0000000000
     33495      3060  TIP3      H1             15.7522995421       20.5256422138       32.2321108773  TIP3      2860            0.0000000000
     33496      3060  TIP3      H2             16.1444547471       20.3597298525       30.8046814562  TIP3      2860            0.0000000000
     33497      3061  TIP3      OH2            10.1466139047       22.7466605835       31.0574250718  TIP3      2861            0.0000000000
     33498      3061  TIP3      H1             10.3155430125       21.7880454447       31.0632404118  TIP3      2861            0.0000000000
     33499      3061  TIP3      H2             10.0439417464       22.8865412661       30.0967125424  TIP3      2861            0.0000000000
     33500      3062  TIP3      OH2             3.2586153435       20.8364610851       28.2701115596  TIP3      2862            0.0000000000
     33501      3062  TIP3      H1              3.3677356233       21.6702357916       27.7764438703  TIP3      2862            0.0000000000
     33502      3062  TIP3      H2              2.8618216648       20.2628773384       27.5798295765  TIP3      2862            0.0000000000
     33503      3063  TIP3      OH2            11.0134200660       20.8985859759       26.6290748694  TIP3      2863            0.0000000000
     33504      3063  TIP3      H1             11.6570842473       20.6080834540       27.3190989304  TIP3      2863            0.0000000000
     33505      3063  TIP3      H2             11.5613088805       21.4948672501       26.0957925482  TIP3      2863            0.0000000000
     33506      3064  TIP3      OH2            -0.1151106765       23.2460192671       29.0042415533  TIP3      2864            0.0000000000
     33507      3064  TIP3      H1              0.5538417722       22.7028998447       29.4606424338  TIP3      2864            0.0000000000
     33508      3064  TIP3      H2             -0.0082429288       22.9316400259       28.0935660252  TIP3      2864            0.0000000000
     33509      3065  TIP3      OH2             5.0388150818       24.7988615076       28.3446305367  TIP3      2865            0.0000000000
     33510      3065  TIP3      H1              5.7196968068       24.2181955070       28.7226859890  TIP3      2865            0.0000000000
     33511      3065  TIP3      H2              4.5265111844       24.1428389576       27.8300316630  TIP3      2865            0.0000000000
     33512      3066  TIP3      OH2            16.0123346604       21.3367701705       33.7402055981  TIP3      2866            0.0000000000
     33513      3066  TIP3      H1             15.4111777033       22.1098377280       33.6291391302  TIP3      2866            0.0000000000
     33514      3066  TIP3      H2             16.0492699167       21.2648972610       34.6997349079  TIP3      2866            0.0000000000
     33515      3067  TIP3      OH2             2.1730909534       19.7345754566       32.3090475362  TIP3      2867            0.0000000000
     33516      3067  TIP3      H1              1.8884784110       20.3067792038       31.5649944536  TIP3      2867            0.0000000000
     33517      3067  TIP3      H2              1.4978585720       19.9640596529       32.9903020952  TIP3      2867            0.0000000000
     33518      3068  TIP3      OH2             9.4497670994       29.2073039355       25.8585797393  TIP3      2868            0.0000000000
     33519      3068  TIP3      H1              9.1947054733       28.9542526605       24.9614858607  TIP3      2868            0.0000000000
     33520      3068  TIP3      H2              9.1578498702       30.1484737319       25.9093024202  TIP3      2868            0.0000000000
     33521      3069  TIP3      OH2             4.6814827679       27.3770886132       32.5487607171  TIP3      2869            0.0000000000
     33522      3069  TIP3      H1              3.9781381940       28.0223271059       32.7718064548  TIP3      2869            0.0000000000
     33523      3069  TIP3      H2              5.3886208060       27.9753236350       32.2590880558  TIP3      2869            0.0000000000
     33524      3070  TIP3      OH2            12.8048025078       20.2689865313       28.6397987639  TIP3      2870            0.0000000000
     33525      3070  TIP3      H1             12.5898455472       19.4943298430       29.1667585280  TIP3      2870            0.0000000000
     33526      3070  TIP3      H2             13.4817535915       20.6985299827       29.1896218731  TIP3      2870            0.0000000000
     33527      3071  TIP3      OH2             1.7406731934       21.5867488981       30.3496805478  TIP3      2871            0.0000000000
     33528      3071  TIP3      H1              2.3677867970       22.2787326061       30.6550937966  TIP3      2871            0.0000000000
     33529      3071  TIP3      H2              2.2551564903       21.1803774349       29.6077124258  TIP3      2871            0.0000000000
     33530      3072  TIP3      OH2             3.1325614630       29.3857443591       33.3700815984  TIP3      2872            0.0000000000
     33531      3072  TIP3      H1              3.0848011163       30.2988704701       33.0311315783  TIP3      2872            0.0000000000
     33532      3072  TIP3      H2              2.2497392823       29.3031370429       33.8128909994  TIP3      2872            0.0000000000
     33533      3073  TIP3      OH2            -0.8479779376       28.9881794577       24.1540316869  TIP3      2873            0.0000000000
     33534      3073  TIP3      H1             -1.0286064590       29.3495155479       23.2815404381  TIP3      2873            0.0000000000
     33535      3073  TIP3      H2             -0.7107235125       29.8130885324       24.6636258344  TIP3      2873            0.0000000000
     33536      3074  TIP3      OH2            12.8185986019       30.6644610575       30.9222445017  TIP3      2874            0.0000000000
     33537      3074  TIP3      H1             11.8502583170       30.7768743529       31.0420114001  TIP3      2874            0.0000000000
     33538      3074  TIP3      H2             13.0879177295       31.5801985753       30.7194031712  TIP3      2874            0.0000000000
     33539      3075  TIP3      OH2            13.1402882899       18.9456441342       32.3111691240  TIP3      2875            0.0000000000
     33540      3075  TIP3      H1             12.4183622723       19.5804447112       32.2174456454  TIP3      2875            0.0000000000
     33541      3075  TIP3      H2             13.8562817291       19.3652773563       31.7888989814  TIP3      2875            0.0000000000
     33542      3076  TIP3      OH2             6.1053805268       17.0699538251       29.7769848240  TIP3      2876            0.0000000000
     33543      3076  TIP3      H1              5.9610977315       16.1064520357       29.6995543526  TIP3      2876            0.0000000000
     33544      3076  TIP3      H2              5.2272459137       17.3748861208       30.0839585965  TIP3      2876            0.0000000000
     33545      3077  TIP3      OH2            11.0902937626       32.4444551012       27.5162218802  TIP3      2877            0.0000000000
     33546      3077  TIP3      H1             11.5080273341       31.7266317659       26.9974976241  TIP3      2877            0.0000000000
     33547      3077  TIP3      H2             11.5156632970       33.2401608635       27.1250257812  TIP3      2877            0.0000000000
     33548      3078  TIP3      OH2            12.2904800203       30.3756770986       26.0212569839  TIP3      2878            0.0000000000
     33549      3078  TIP3      H1             12.0145982891       29.6664982562       25.4199685265  TIP3      2878            0.0000000000
     33550      3078  TIP3      H2             12.3278108172       29.8922522854       26.8628271070  TIP3      2878            0.0000000000
     33551      3079  TIP3      OH2            13.9050525447       28.9740842571       34.5220026158  TIP3      2879            0.0000000000
     33552      3079  TIP3      H1             14.0534926363       28.3176978505       33.8053618346  TIP3      2879            0.0000000000
     33553      3079  TIP3      H2             14.1139137565       29.8142409642       34.0756647109  TIP3      2879            0.0000000000
     33554      3080  TIP3      OH2             8.4245098826       25.9019209385       24.3180694398  TIP3      2880            0.0000000000
     33555      3080  TIP3      H1              7.7039527547       26.4084823939       23.9151310295  TIP3      2880            0.0000000000
     33556      3080  TIP3      H2              9.1113739427       25.9280470437       23.6180161551  TIP3      2880            0.0000000000
     33557      3081  TIP3      OH2             8.4583365141       24.3175296050       21.4184078534  TIP3      2881            0.0000000000
     33558      3081  TIP3      H1              9.2233152173       24.3622216253       22.0015985020  TIP3      2881            0.0000000000
     33559      3081  TIP3      H2              8.7336124181       23.6970844864       20.7296502068  TIP3      2881            0.0000000000
     33560      3082  TIP3      OH2            15.7954433520       25.2839882202       32.5653093912  TIP3      2882            0.0000000000
     33561      3082  TIP3      H1             15.1375693407       26.0077600115       32.6029285837  TIP3      2882            0.0000000000
     33562      3082  TIP3      H2             16.2912837005       25.5165764838       31.7591821086  TIP3      2882            0.0000000000
     33563      3083  TIP3      OH2            11.8482549532       26.0677288906       25.2084574732  TIP3      2883            0.0000000000
     33564      3083  TIP3      H1             11.1204604400       26.3277198109       25.8094577863  TIP3      2883            0.0000000000
     33565      3083  TIP3      H2             12.3396856745       25.4145452084       25.7264221435  TIP3      2883            0.0000000000
     33566      3084  TIP3      OH2            11.7832741894       24.2361325910       34.3325559888  TIP3      2884            0.0000000000
     33567      3084  TIP3      H1             11.7897584510       25.0567331342       34.8528702920  TIP3      2884            0.0000000000
     33568      3084  TIP3      H2             11.1537631211       24.5264284910       33.6400564954  TIP3      2884            0.0000000000
     33569      3085  TIP3      OH2             3.4709713804       26.7336964664       27.1313693419  TIP3      2885            0.0000000000
     33570      3085  TIP3      H1              3.1473097372       26.3449987684       26.2871056054  TIP3      2885            0.0000000000
     33571      3085  TIP3      H2              4.0810130144       26.0368943103       27.4603307670  TIP3      2885            0.0000000000
     33572      3086  TIP3      OH2             4.7831776298       30.1123469113       29.8046579262  TIP3      2886            0.0000000000
     33573      3086  TIP3      H1              4.7798912763       29.5913439131       28.9924459185  TIP3      2886            0.0000000000
     33574      3086  TIP3      H2              5.5668834996       29.7570317039       30.2627233417  TIP3      2886            0.0000000000
     33575      3087  TIP3      OH2             3.7916474429       25.4768516493       30.7881156172  TIP3      2887            0.0000000000
     33576      3087  TIP3      H1              4.3409592297       25.5731938680       29.9848342028  TIP3      2887            0.0000000000
     33577      3087  TIP3      H2              4.1857615078       26.1411961399       31.3960649433  TIP3      2887            0.0000000000
     33578      3088  TIP3      OH2            10.2202267134       31.0477107605       31.4958337976  TIP3      2888            0.0000000000
     33579      3088  TIP3      H1              9.9242006704       31.6857191832       32.1513889419  TIP3      2888            0.0000000000
     33580      3088  TIP3      H2              9.9574350671       30.1961307106       31.9156138729  TIP3      2888            0.0000000000
     33581      3089  TIP3      OH2             4.7471392947       29.9118572704       35.4824643308  TIP3      2889            0.0000000000
     33582      3089  TIP3      H1              4.3362596917       30.6606252399       35.9630429811  TIP3      2889            0.0000000000
     33583      3089  TIP3      H2              4.0756945648       29.7074972618       34.7854832617  TIP3      2889            0.0000000000
     33584      3090  TIP3      OH2            10.6945708548       25.2768572186       22.8849366971  TIP3      2890            0.0000000000
     33585      3090  TIP3      H1             11.2600174221       25.4499667037       23.6826307895  TIP3      2890            0.0000000000
     33586      3090  TIP3      H2             11.1721798752       25.7423428886       22.1737347697  TIP3      2890            0.0000000000
     33587      3091  TIP3      OH2             1.6902628822       26.0658514465       34.6337792226  TIP3      2891            0.0000000000
     33588      3091  TIP3      H1              1.7432600286       26.7336399633       35.3424236374  TIP3      2891            0.0000000000
     33589      3091  TIP3      H2              0.7475057185       26.1535924370       34.4238619420  TIP3      2891            0.0000000000
     33590      3092  TIP3      OH2             8.4429554580       31.9910970843       26.3591652885  TIP3      2892            0.0000000000
     33591      3092  TIP3      H1              8.8856784298       32.3147966257       27.1479496582  TIP3      2892            0.0000000000
     33592      3092  TIP3      H2              7.8869860256       32.7362258755       26.1083003048  TIP3      2892            0.0000000000
     33593      3093  TIP3      OH2             2.9955773961       31.9396995859       36.2307897475  TIP3      2893            0.0000000000
     33594      3093  TIP3      H1              2.9309571743       31.8394774916       35.2645764702  TIP3      2893            0.0000000000
     33595      3093  TIP3      H2              2.0646031014       31.8074147020       36.4956852371  TIP3      2893            0.0000000000
     33596      3094  TIP3      OH2            14.3634539945       16.9687300228       22.7215990007  TIP3      2894            0.0000000000
     33597      3094  TIP3      H1             13.4665438048       17.1974053889       23.0448261475  TIP3      2894            0.0000000000
     33598      3094  TIP3      H2             14.7047388877       17.7936231274       22.3475177513  TIP3      2894            0.0000000000
     33599      3095  TIP3      OH2             2.4412275015       25.7317233691       24.7253446833  TIP3      2895            0.0000000000
     33600      3095  TIP3      H1              2.1515856415       26.5339291552       24.2362472713  TIP3      2895            0.0000000000
     33601      3095  TIP3      H2              1.7411807190       25.1050409490       24.5501198375  TIP3      2895            0.0000000000
     33602      3096  TIP3      OH2            15.5457997687       31.3998837119       21.1018634598  TIP3      2896            0.0000000000
     33603      3096  TIP3      H1             15.6867546657       32.3223774601       21.2615213530  TIP3      2896            0.0000000000
     33604      3096  TIP3      H2             16.4498931109       31.0118401375       21.0610446777  TIP3      2896            0.0000000000
     33605      3097  TIP3      OH2            -1.4771483209       28.1795676894       33.6444967998  TIP3      2897            0.0000000000
     33606      3097  TIP3      H1             -1.9102408816       28.0940322853       32.7739883686  TIP3      2897            0.0000000000
     33607      3097  TIP3      H2             -1.3858634501       27.2288676373       33.8578636495  TIP3      2897            0.0000000000
     33608      3098  TIP3      OH2            -1.7341379109       30.9400039720       30.4126551126  TIP3      2898            0.0000000000
     33609      3098  TIP3      H1             -0.7781979015       30.7949916995       30.3836217954  TIP3      2898            0.0000000000
     33610      3098  TIP3      H2             -1.7668473675       31.7698655391       30.9056267906  TIP3      2898            0.0000000000
     33611      3099  TIP3      OH2            16.5186994439       31.6106711252       36.1041885469  TIP3      2899            0.0000000000
     33612      3099  TIP3      H1             16.4008300486       30.6524312514       36.0778669601  TIP3      2899            0.0000000000
     33613      3099  TIP3      H2             15.6476414524       31.8660960550       36.4902621112  TIP3      2899            0.0000000000
     33614      3100  TIP3      OH2             7.4806503572       31.1614711424       34.9661357281  TIP3      2900            0.0000000000
     33615      3100  TIP3      H1              7.5389856133       32.0034916331       35.4751683243  TIP3      2900            0.0000000000
     33616      3100  TIP3      H2              6.6084270519       30.8010763801       35.2172809302  TIP3      2900            0.0000000000
     33617      3101  TIP3      OH2             7.9081882256       34.8965576375       24.7544631347  TIP3      2901            0.0000000000
     33618      3101  TIP3      H1              7.7881827586       34.8478427140       23.7918015602  TIP3      2901            0.0000000000
     33619      3101  TIP3      H2              7.9254725203       35.8535668864       24.9330563767  TIP3      2901            0.0000000000
     33620      3102  TIP3      OH2             1.5633031152       33.7872384780       26.5958420888  TIP3      2902            0.0000000000
     33621      3102  TIP3      H1              1.7064673975       33.3758926344       27.4754823982  TIP3      2902            0.0000000000
     33622      3102  TIP3      H2              0.7213150143       33.3717779124       26.3477964527  TIP3      2902            0.0000000000
     33623      3103  TIP3      OH2            10.6495110292       34.0963145141       24.5122237539  TIP3      2903            0.0000000000
     33624      3103  TIP3      H1              9.6967168624       34.1451995179       24.7221685225  TIP3      2903            0.0000000000
     33625      3103  TIP3      H2             10.9152864792       33.3377322305       25.0567672892  TIP3      2903            0.0000000000
     33626      3104  TIP3      OH2            13.6730363088       23.0858855150       36.5778736383  TIP3      2904            0.0000000000
     33627      3104  TIP3      H1             13.2135777606       23.5467678408       35.8584695992  TIP3      2904            0.0000000000
     33628      3104  TIP3      H2             13.6539106818       22.1682902869       36.2675883450  TIP3      2904            0.0000000000
     33629      3105  TIP3      OH2             0.8137462277       29.4911053283       34.5800811389  TIP3      2905            0.0000000000
     33630      3105  TIP3      H1              1.0323955991       29.1296745658       35.4641938103  TIP3      2905            0.0000000000
     33631      3105  TIP3      H2             -0.0584705164       29.0987250225       34.3676849836  TIP3      2905            0.0000000000
     33632      3106  TIP3      OH2             3.4926007924       17.9730772788       30.5267658270  TIP3      2906            0.0000000000
     33633      3106  TIP3      H1              2.5897786911       17.8449507145       30.1606547036  TIP3      2906            0.0000000000
     33634      3106  TIP3      H2              3.3570213919       18.8023121104       31.0145033642  TIP3      2906            0.0000000000
     33635      3107  TIP3      OH2             8.1346367102       17.6358840997       33.8871205619  TIP3      2907            0.0000000000
     33636      3107  TIP3      H1              8.5248469172       17.2104318564       34.6733661630  TIP3      2907            0.0000000000
     33637      3107  TIP3      H2              7.1625164985       17.5223675159       34.0338663120  TIP3      2907            0.0000000000
     33638      3108  TIP3      OH2            11.4220288231       21.4857531927       34.7901017549  TIP3      2908            0.0000000000
     33639      3108  TIP3      H1             10.8569119206       21.2704012422       35.5709893404  TIP3      2908            0.0000000000
     33640      3108  TIP3      H2             11.2376671604       22.4132961926       34.5623372452  TIP3      2908            0.0000000000
     33641      3109  TIP3      OH2             3.5966176817       22.9497466951       31.7907424415  TIP3      2909            0.0000000000
     33642      3109  TIP3      H1              2.8539836645       22.9377588161       32.4212181973  TIP3      2909            0.0000000000
     33643      3109  TIP3      H2              3.5456231051       23.8545170595       31.4090763209  TIP3      2909            0.0000000000
     33644      3110  TIP3      OH2             3.5503017937       23.0657268564       26.6517782529  TIP3      2910            0.0000000000
     33645      3110  TIP3      H1              2.6137381367       22.8070713052       26.5150377995  TIP3      2910            0.0000000000
     33646      3110  TIP3      H2              3.9353838070       22.7567291618       25.8126675391  TIP3      2910            0.0000000000
     33647      3111  TIP3      OH2             9.0457207255       23.5357916813       25.3840056911  TIP3      2911            0.0000000000
     33648      3111  TIP3      H1              8.6816520165       24.3913229761       25.0669267622  TIP3      2911            0.0000000000
     33649      3111  TIP3      H2              9.7615302201       23.3828765521       24.7419674383  TIP3      2911            0.0000000000
     33650      3112  TIP3      OH2             8.1267315037       23.7747409357       36.8513905118  TIP3      2912            0.0000000000
     33651      3112  TIP3      H1              7.6021642486       22.9987453187       37.1621410615  TIP3      2912            0.0000000000
     33652      3112  TIP3      H2              8.9646395468       23.6548701564       37.3281786136  TIP3      2912            0.0000000000
     33653      3113  TIP3      OH2            10.1101854570       23.0589554483       28.2496195545  TIP3      2913            0.0000000000
     33654      3113  TIP3      H1              9.8323030411       23.6230826526       27.5080122662  TIP3      2913            0.0000000000
     33655      3113  TIP3      H2             10.2029144827       22.2078348561       27.7817312834  TIP3      2913            0.0000000000
     33656      3114  TIP3      OH2             1.2155710544       23.1938373309       33.4588006804  TIP3      2914            0.0000000000
     33657      3114  TIP3      H1              1.2992383620       23.6020288793       34.3382114077  TIP3      2914            0.0000000000
     33658      3114  TIP3      H2              0.7741031298       22.3559011935       33.6696783818  TIP3      2914            0.0000000000
     33659      3115  TIP3      OH2            -2.1281237174       20.3022943094       27.4466405411  TIP3      2915            0.0000000000
     33660      3115  TIP3      H1             -1.4459930000       20.2641206173       28.1474358758  TIP3      2915            0.0000000000
     33661      3115  TIP3      H2             -1.6769592260       19.9293433731       26.6662539793  TIP3      2915            0.0000000000
     33662      3116  TIP3      OH2            -0.8318259048       21.0552784913       22.8871028753  TIP3      2916            0.0000000000
     33663      3116  TIP3      H1             -0.3618547194       21.6113606576       22.2495284642  TIP3      2916            0.0000000000
     33664      3116  TIP3      H2             -1.5604006310       21.6523821776       23.1352705650  TIP3      2916            0.0000000000
     33665      3117  TIP3      OH2             9.3026196604       24.6378750782       32.8129125046  TIP3      2917            0.0000000000
     33666      3117  TIP3      H1              9.6853120374       23.9514851787       32.2294012304  TIP3      2917            0.0000000000
     33667      3117  TIP3      H2              8.8361300717       24.1106479426       33.4859062010  TIP3      2917            0.0000000000
     33668      3118  TIP3      OH2             6.0954389127       20.6248294487       27.6641044876  TIP3      2918            0.0000000000
     33669      3118  TIP3      H1              5.1576057098       20.6213407838       27.9580275972  TIP3      2918            0.0000000000
     33670      3118  TIP3      H2              6.5855591692       20.4442004779       28.4806677800  TIP3      2918            0.0000000000
     33671      3119  TIP3      OH2             0.9185048103       22.1502046785       26.5123089047  TIP3      2919            0.0000000000
     33672      3119  TIP3      H1              0.0261707550       22.3067799278       26.1370137455  TIP3      2919            0.0000000000
     33673      3119  TIP3      H2              1.1918294083       21.3073329199       26.0973514283  TIP3      2919            0.0000000000
     33674      3120  TIP3      OH2             4.5418414233       22.2186013660       24.1484017900  TIP3      2920            0.0000000000
     33675      3120  TIP3      H1              5.5036533585       22.2906508559       24.3332053128  TIP3      2920            0.0000000000
     33676      3120  TIP3      H2              4.3662224875       22.9324325255       23.5415188898  TIP3      2920            0.0000000000
     33677      3121  TIP3      OH2            10.5130720480       19.8552230535       30.8900050245  TIP3      2921            0.0000000000
     33678      3121  TIP3      H1              9.8283548303       19.9005458363       31.5961857891  TIP3      2921            0.0000000000
     33679      3121  TIP3      H2             10.0041002844       19.5956799002       30.1083863326  TIP3      2921            0.0000000000
     33680      3122  TIP3      OH2            13.7122947828       35.4727983074       37.2155793767  TIP3      2922            0.0000000000
     33681      3122  TIP3      H1             13.9632284323       35.8851849911       36.3705283104  TIP3      2922            0.0000000000
     33682      3122  TIP3      H2             14.4084549231       35.8562053362       37.7762055390  TIP3      2922            0.0000000000
     33683      3123  TIP3      OH2             1.3889840439       27.9614644895       36.7895130220  TIP3      2923            0.0000000000
     33684      3123  TIP3      H1              2.1096720260       28.2077114653       37.3920047561  TIP3      2923            0.0000000000
     33685      3123  TIP3      H2              0.6165967015       28.0411595774       37.3907269131  TIP3      2923            0.0000000000
     33686      3124  TIP3      OH2             7.3882775827       23.3733058042       29.5434998170  TIP3      2924            0.0000000000
     33687      3124  TIP3      H1              7.9889961806       22.8408466728       29.0098058844  TIP3      2924            0.0000000000
     33688      3124  TIP3      H2              7.2433666063       22.8232292861       30.3251799721  TIP3      2924            0.0000000000
     33689      3125  TIP3      OH2             2.3977259130       19.5314800934       25.9674133620  TIP3      2925            0.0000000000
     33690      3125  TIP3      H1              2.0768206152       18.6103994076       25.9695548653  TIP3      2925            0.0000000000
     33691      3125  TIP3      H2              3.1934185782       19.4390337964       25.4267501551  TIP3      2925            0.0000000000
     33692      3126  TIP3      OH2             6.0285172140       21.6977262819       31.9575549129  TIP3      2926            0.0000000000
     33693      3126  TIP3      H1              5.2033583588       22.2196493494       32.0457172730  TIP3      2926            0.0000000000
     33694      3126  TIP3      H2              6.5835476485       22.0532742275       32.6790061181  TIP3      2926            0.0000000000
     33695      3127  TIP3      OH2             6.6168204873       27.9173536525       23.6646100332  TIP3      2927            0.0000000000
     33696      3127  TIP3      H1              5.8132618317       27.4696960156       23.3764546734  TIP3      2927            0.0000000000
     33697      3127  TIP3      H2              6.4288672710       28.0695858870       24.6122128332  TIP3      2927            0.0000000000
     33698      3128  TIP3      OH2            13.8060708151       27.1272403990       32.4585064089  TIP3      2928            0.0000000000
     33699      3128  TIP3      H1             14.3663850019       27.6100308672       31.8238404481  TIP3      2928            0.0000000000
     33700      3128  TIP3      H2             12.9448518817       27.1695490614       31.9957835498  TIP3      2928            0.0000000000
     33701      3129  TIP3      OH2             8.1094579342       28.1955629256       34.9008949024  TIP3      2929            0.0000000000
     33702      3129  TIP3      H1              7.7586596511       27.7642223654       35.6869760207  TIP3      2929            0.0000000000
     33703      3129  TIP3      H2              7.8516305890       29.1162766059       35.0084750501  TIP3      2929            0.0000000000
     33704      3130  TIP3      OH2            11.1822800732       22.6446905255       23.5568926861  TIP3      2930            0.0000000000
     33705      3130  TIP3      H1             12.0949024378       22.5236088487       23.8713946613  TIP3      2930            0.0000000000
     33706      3130  TIP3      H2             11.2537391585       23.3831126126       22.9250786336  TIP3      2930            0.0000000000
     33707      3131  TIP3      OH2             1.7268582310       27.3167401753       29.4512612573  TIP3      2931            0.0000000000
     33708      3131  TIP3      H1              2.4053833406       27.2359792895       28.7541901771  TIP3      2931            0.0000000000
     33709      3131  TIP3      H2              1.7866531435       26.4617369354       29.9109340561  TIP3      2931            0.0000000000
     33710      3132  TIP3      OH2             8.7088801880       29.4002437302       22.7623175597  TIP3      2932            0.0000000000
     33711      3132  TIP3      H1              8.3639605292       30.2703078827       23.0453278492  TIP3      2932            0.0000000000
     33712      3132  TIP3      H2              7.9646778596       28.7880458904       22.9032052914  TIP3      2932            0.0000000000
     33713      3133  TIP3      OH2            -1.2862622378       25.7186693945       34.7182540781  TIP3      2933            0.0000000000
     33714      3133  TIP3      H1             -1.1122013124       25.2726707502       35.5699387207  TIP3      2933            0.0000000000
     33715      3133  TIP3      H2             -1.9043012207       25.1097923094       34.2777726979  TIP3      2933            0.0000000000
     33716      3134  TIP3      OH2             5.7292754281       25.2813046672       36.8916238559  TIP3      2934            0.0000000000
     33717      3134  TIP3      H1              5.4087576358       24.9699039048       36.0328726807  TIP3      2934            0.0000000000
     33718      3134  TIP3      H2              6.6515932167       24.9553321713       36.8903350542  TIP3      2934            0.0000000000
     33719      3135  TIP3      OH2            10.4163649935       30.6167735680       34.8497013828  TIP3      2935            0.0000000000
     33720      3135  TIP3      H1              9.4912475351       30.7943760896       34.6152245067  TIP3      2935            0.0000000000
     33721      3135  TIP3      H2             10.3832684328       30.9110921037       35.7800158342  TIP3      2935            0.0000000000
     33722      3136  TIP3      OH2            16.0646759400       22.8154459574       23.2670354057  TIP3      2936            0.0000000000
     33723      3136  TIP3      H1             15.5495382360       22.4897744827       22.5021422665  TIP3      2936            0.0000000000
     33724      3136  TIP3      H2             16.1563290873       23.7353872522       22.9625508716  TIP3      2936            0.0000000000
     33725      3137  TIP3      OH2            16.0721836704       28.6540196994       36.0382079929  TIP3      2937            0.0000000000
     33726      3137  TIP3      H1             15.1795358012       28.8782194485       35.6762764619  TIP3      2937            0.0000000000
     33727      3137  TIP3      H2             16.6166140205       28.6051515629       35.2248703748  TIP3      2937            0.0000000000
     33728      3138  TIP3      OH2            14.4056904791       31.6475981636       23.6217151822  TIP3      2938            0.0000000000
     33729      3138  TIP3      H1             14.0099569537       30.8320207377       23.9848349203  TIP3      2938            0.0000000000
     33730      3138  TIP3      H2             14.6480427162       31.3687794350       22.7232773994  TIP3      2938            0.0000000000
     33731      3139  TIP3      OH2            11.5811026801       26.4410354463       30.7401461036  TIP3      2939            0.0000000000
     33732      3139  TIP3      H1             10.6409920063       26.2324804478       30.6287701130  TIP3      2939            0.0000000000
     33733      3139  TIP3      H2             12.0124110816       25.6817999548       30.3030076863  TIP3      2939            0.0000000000
     33734      3140  TIP3      OH2             4.0958708233       30.7661376020       26.8456849156  TIP3      2940            0.0000000000
     33735      3140  TIP3      H1              4.5952017598       31.5763580982       26.6388607404  TIP3      2940            0.0000000000
     33736      3140  TIP3      H2              3.2210646506       31.0033650834       26.5112813384  TIP3      2940            0.0000000000
     33737      3141  TIP3      OH2             5.5056612390       28.4465629080       26.3421724451  TIP3      2941            0.0000000000
     33738      3141  TIP3      H1              5.1950074711       29.3626541149       26.4559008832  TIP3      2941            0.0000000000
     33739      3141  TIP3      H2              4.8028055419       27.9439000372       26.8019246989  TIP3      2941            0.0000000000
     33740      3142  TIP3      OH2             5.9642464369       32.6225773020       32.7730280404  TIP3      2942            0.0000000000
     33741      3142  TIP3      H1              6.4246159177       33.4259661572       32.4839049876  TIP3      2942            0.0000000000
     33742      3142  TIP3      H2              6.5811872844       32.2790464825       33.4427138307  TIP3      2942            0.0000000000
     33743      3143  TIP3      OH2             4.2032177540       33.3986147524       25.9468105074  TIP3      2943            0.0000000000
     33744      3143  TIP3      H1              3.2362129807       33.5637300443       26.0266090030  TIP3      2943            0.0000000000
     33745      3143  TIP3      H2              4.5603336821       34.2603284316       26.2368886865  TIP3      2943            0.0000000000
     33746      3144  TIP3      OH2             9.4810938016       28.6137577433       32.3841193575  TIP3      2944            0.0000000000
     33747      3144  TIP3      H1              9.1647061645       28.4259771741       33.2924398284  TIP3      2944            0.0000000000
     33748      3144  TIP3      H2             10.1272102535       27.9083461531       32.2186909227  TIP3      2944            0.0000000000
     33749      3145  TIP3      OH2            12.3106436711       33.1772058431       34.8679272658  TIP3      2945            0.0000000000
     33750      3145  TIP3      H1             11.6092918211       32.6987009624       34.3913791285  TIP3      2945            0.0000000000
     33751      3145  TIP3      H2             12.4875978482       33.8938770426       34.2209199963  TIP3      2945            0.0000000000
     33752      3146  TIP3      OH2             0.3671698617       20.4559129440       34.2646968561  TIP3      2946            0.0000000000
     33753      3146  TIP3      H1             -0.5391433741       20.8071247375       34.2448957173  TIP3      2946            0.0000000000
     33754      3146  TIP3      H2              0.2559173219       19.6093555537       34.7253430624  TIP3      2946            0.0000000000
     33755      3147  TIP3      OH2            -0.0238037265       32.2351967883       32.6919249805  TIP3      2947            0.0000000000
     33756      3147  TIP3      H1              0.2884166029       31.3174759875       32.6962461818  TIP3      2947            0.0000000000
     33757      3147  TIP3      H2              0.2408029400       32.5299492875       33.5704114727  TIP3      2947            0.0000000000
     33758      3148  TIP3      OH2             5.6576745434       30.6122723396       19.8458010300  TIP3      2948            0.0000000000
     33759      3148  TIP3      H1              6.2240642187       29.9635410198       19.4113858972  TIP3      2948            0.0000000000
     33760      3148  TIP3      H2              5.6032156589       30.3556611633       20.7820178838  TIP3      2948            0.0000000000
     33761      3149  TIP3      OH2             4.6935989044       30.3328791462       22.4094517771  TIP3      2949            0.0000000000
     33762      3149  TIP3      H1              4.9814954369       29.8084715723       23.1632751577  TIP3      2949            0.0000000000
     33763      3149  TIP3      H2              4.8134958508       31.2543846507       22.7285067144  TIP3      2949            0.0000000000
     33764      3150  TIP3      OH2             1.3134657134       27.5330213599       22.9127287778  TIP3      2950            0.0000000000
     33765      3150  TIP3      H1              0.5826741319       27.9209240844       23.4406375649  TIP3      2950            0.0000000000
     33766      3150  TIP3      H2              1.7488417039       28.3488135874       22.6189751861  TIP3      2950            0.0000000000
     33767      3151  TIP3      OH2             9.0991484451       20.2286349546       33.2322401069  TIP3      2951            0.0000000000
     33768      3151  TIP3      H1              9.8159417280       20.2884694012       33.8730071292  TIP3      2951            0.0000000000
     33769      3151  TIP3      H2              8.7160979595       19.3521300425       33.4355067302  TIP3      2951            0.0000000000
     33770      3152  TIP3      OH2             9.9183195668       19.7853286037       24.2675755672  TIP3      2952            0.0000000000
     33771      3152  TIP3      H1             10.0474620999       20.3545551333       23.5003271807  TIP3      2952            0.0000000000
     33772      3152  TIP3      H2             10.4139073206       20.2481932355       24.9603743672  TIP3      2952            0.0000000000
     33773      3153  TIP3      OH2             7.5245548850       31.9467333436       23.1342495403  TIP3      2953            0.0000000000
     33774      3153  TIP3      H1              6.7069287847       32.4730095047       23.1912023525  TIP3      2953            0.0000000000
     33775      3153  TIP3      H2              8.0594527750       32.4497049465       22.4994978297  TIP3      2953            0.0000000000
     33776      3154  TIP3      OH2             7.0432579035       21.5753596814       25.1081463970  TIP3      2954            0.0000000000
     33777      3154  TIP3      H1              7.8478956401       22.1301925590       25.1726184140  TIP3      2954            0.0000000000
     33778      3154  TIP3      H2              6.7945475743       21.4194612901       26.0401330063  TIP3      2954            0.0000000000
     33779      3155  TIP3      OH2             7.6285920614       22.5771247949       34.3282196196  TIP3      2955            0.0000000000
     33780      3155  TIP3      H1              7.7016768561       23.1320127134       35.1269421168  TIP3      2955            0.0000000000
     33781      3155  TIP3      H2              8.2898718625       21.8802476015       34.4219323573  TIP3      2955            0.0000000000
     33782      3156  TIP3      OH2             7.9187685440       18.6123106361       26.0043040120  TIP3      2956            0.0000000000
     33783      3156  TIP3      H1              7.5935352138       19.2514373363       26.6636902529  TIP3      2956            0.0000000000
     33784      3156  TIP3      H2              8.6088231122       19.1599230806       25.5632699944  TIP3      2956            0.0000000000
     33785      3157  TIP3      OH2             4.9223280668       33.0315444477       23.1612434791  TIP3      2957            0.0000000000
     33786      3157  TIP3      H1              5.0479477437       33.8348867167       22.6264481620  TIP3      2957            0.0000000000
     33787      3157  TIP3      H2              4.6436293242       33.3670885996       24.0354985634  TIP3      2957            0.0000000000
     33788      3158  TIP3      OH2             3.6046724470       19.7517881044       22.6753233738  TIP3      2958            0.0000000000
     33789      3158  TIP3      H1              3.5633469271       20.5961725256       23.1431302171  TIP3      2958            0.0000000000
     33790      3158  TIP3      H2              4.5014082912       19.4537016547       22.9458718214  TIP3      2958            0.0000000000
     33791      3159  TIP3      OH2            13.8034389619       20.4423808225       35.1711968769  TIP3      2959            0.0000000000
     33792      3159  TIP3      H1             12.8766374168       20.7595894414       35.0421288895  TIP3      2959            0.0000000000
     33793      3159  TIP3      H2             14.1050360378       20.4292745464       34.2468632885  TIP3      2959            0.0000000000
     33794      3160  TIP3      OH2            12.4144775524       24.2333635149       29.2055758387  TIP3      2960            0.0000000000
     33795      3160  TIP3      H1             11.6005570016       23.7858767885       28.9047478905  TIP3      2960            0.0000000000
     33796      3160  TIP3      H2             12.9038139759       23.5364812728       29.6970428358  TIP3      2960            0.0000000000
     33797      3161  TIP3      OH2             1.8349268024       30.1518829364       21.8008184406  TIP3      2961            0.0000000000
     33798      3161  TIP3      H1              2.4806088606       30.7948526664       22.1217877286  TIP3      2961            0.0000000000
     33799      3161  TIP3      H2              2.3296603428       29.6248693411       21.1460954856  TIP3      2961            0.0000000000
     33800      3162  TIP3      OH2             0.1600371138       22.8374543089       21.0045918925  TIP3      2962            0.0000000000
     33801      3162  TIP3      H1              0.1533754460       23.7886769897       21.0573379928  TIP3      2962            0.0000000000
     33802      3162  TIP3      H2             -0.6567664092       22.5740903209       20.5300920397  TIP3      2962            0.0000000000
     33803      3163  TIP3      OH2            13.4789737272       33.4865748248       30.8599609613  TIP3      2963            0.0000000000
     33804      3163  TIP3      H1             13.3912056842       34.1642836447       30.1609037859  TIP3      2963            0.0000000000
     33805      3163  TIP3      H2             14.4445247800       33.5395460919       31.0266241601  TIP3      2963            0.0000000000
     33806      3164  TIP3      OH2             0.9733049808       17.6117376534       29.6614044229  TIP3      2964            0.0000000000
     33807      3164  TIP3      H1              0.7813864643       17.6293720775       28.6968672619  TIP3      2964            0.0000000000
     33808      3164  TIP3      H2              0.5601447974       16.7575550779       29.9077693881  TIP3      2964            0.0000000000
     33809      3165  TIP3      OH2            -0.0908637084       31.5309800947       25.7994108063  TIP3      2965            0.0000000000
     33810      3165  TIP3      H1             -0.9341939917       32.0023181928       25.7527213957  TIP3      2965            0.0000000000
     33811      3165  TIP3      H2              0.4018125012       31.9962506349       25.1087079078  TIP3      2965            0.0000000000
     33812      3166  TIP3      OH2            -0.8686485299       34.1820432200       37.0768047846  TIP3      2966            0.0000000000
     33813      3166  TIP3      H1             -0.2627164014       33.9855848013       37.8181985288  TIP3      2966            0.0000000000
     33814      3166  TIP3      H2             -1.2685169710       33.3117246334       36.8944643491  TIP3      2966            0.0000000000
     33815      3167  TIP3      OH2             3.8270328461       33.0984324948       38.6888909212  TIP3      2967            0.0000000000
     33816      3167  TIP3      H1              4.5795167891       32.5980930566       39.0254332025  TIP3      2967            0.0000000000
     33817      3167  TIP3      H2              3.7923920833       32.8196996064       37.7539171624  TIP3      2967            0.0000000000
     33818      3168  TIP3      OH2            10.3158233794       31.4892136201       37.4439775797  TIP3      2968            0.0000000000
     33819      3168  TIP3      H1             10.0025721466       30.6012654959       37.7183974820  TIP3      2968            0.0000000000
     33820      3168  TIP3      H2             11.0864835462       31.6070612502       38.0349379004  TIP3      2968            0.0000000000
     33821      3169  TIP3      OH2            12.6225194232       32.5150454403       20.4237053280  TIP3      2969            0.0000000000
     33822      3169  TIP3      H1             12.7747320810       31.6051559917       20.7351803338  TIP3      2969            0.0000000000
     33823      3169  TIP3      H2             13.2288673326       32.5653674766       19.6851184607  TIP3      2969            0.0000000000
     33824      3170  TIP3      OH2            -0.9590647865       27.9570881536       38.0835674644  TIP3      2970            0.0000000000
     33825      3170  TIP3      H1             -0.7903539217       27.0461093751       37.7810922062  TIP3      2970            0.0000000000
     33826      3170  TIP3      H2             -1.6955232411       28.2132532461       37.5038825202  TIP3      2970            0.0000000000
     33827      3171  TIP3      OH2             3.3920948570       28.2802027762       20.0978787313  TIP3      2971            0.0000000000
     33828      3171  TIP3      H1              3.5265263471       27.5151866081       20.6667751652  TIP3      2971            0.0000000000
     33829      3171  TIP3      H2              4.1286746528       28.1238859130       19.4723273206  TIP3      2971            0.0000000000
     33830      3172  TIP3      OH2             5.7648446549       27.9491880282       37.4640086902  TIP3      2972            0.0000000000
     33831      3172  TIP3      H1              5.4253267476       28.2609711054       36.6014969315  TIP3      2972            0.0000000000
     33832      3172  TIP3      H2              5.8339897431       26.9727080425       37.3583442776  TIP3      2972            0.0000000000
     33833      3173  TIP3      OH2             8.7366903279       29.3390868222       19.8950458692  TIP3      2973            0.0000000000
     33834      3173  TIP3      H1              8.5893363580       29.5200729922       20.8285584824  TIP3      2973            0.0000000000
     33835      3173  TIP3      H2              8.6314774576       28.3984012409       19.7700466384  TIP3      2973            0.0000000000
     33836      3174  TIP3      OH2            11.4569864845       27.8046468212       34.8593019502  TIP3      2974            0.0000000000
     33837      3174  TIP3      H1             12.2454389031       28.3866546085       34.7979303400  TIP3      2974            0.0000000000
     33838      3174  TIP3      H2             10.7581381496       28.4735580904       34.8939685953  TIP3      2974            0.0000000000
     33839      3175  TIP3      OH2            -0.0327546854       25.1823411120       37.4612851202  TIP3      2975            0.0000000000
     33840      3175  TIP3      H1              0.3841348483       24.3192239735       37.3712852055  TIP3      2975            0.0000000000
     33841      3175  TIP3      H2             -0.2669052497       25.1884849992       38.4033553205  TIP3      2975            0.0000000000
     33842      3176  TIP3      OH2             3.8633521882       24.1258922620       34.8141261380  TIP3      2976            0.0000000000
     33843      3176  TIP3      H1              3.2674756546       24.8477409175       35.0707729054  TIP3      2976            0.0000000000
     33844      3176  TIP3      H2              4.2621875008       24.4942029906       34.0073392070  TIP3      2976            0.0000000000
     33845      3177  TIP3      OH2             8.9388591813       26.6972626603       38.1537861162  TIP3      2977            0.0000000000
     33846      3177  TIP3      H1              9.8951030513       26.6824293932       38.0273940976  TIP3      2977            0.0000000000
     33847      3177  TIP3      H2              8.7668540477       25.9296375637       38.7223086031  TIP3      2977            0.0000000000
     33848      3178  TIP3      OH2             4.2720467001       21.5043348442       35.8713197856  TIP3      2978            0.0000000000
     33849      3178  TIP3      H1              4.3869342444       20.7959252904       35.2113082780  TIP3      2978            0.0000000000
     33850      3178  TIP3      H2              4.2255263248       22.3156901358       35.3230278780  TIP3      2978            0.0000000000
     33851      3179  TIP3      OH2             4.6749995216       19.8862133712       33.4271406151  TIP3      2979            0.0000000000
     33852      3179  TIP3      H1              5.1823966951       20.3529483709       32.7207360862  TIP3      2979            0.0000000000
     33853      3179  TIP3      H2              3.7808360634       19.8097133647       33.0220672890  TIP3      2979            0.0000000000
     33854      3180  TIP3      OH2             6.2120028704       25.3796882686       33.6675625723  TIP3      2980            0.0000000000
     33855      3180  TIP3      H1              6.9665628920       25.2123458164       33.0973985794  TIP3      2980            0.0000000000
     33856      3180  TIP3      H2              5.8464167174       26.2123616353       33.3309036637  TIP3      2980            0.0000000000
     33857      3181  TIP3      OH2            10.6104997288       23.1246544686       38.6443297320  TIP3      2981            0.0000000000
     33858      3181  TIP3      H1             10.8453798239       22.1914479440       38.5387745397  TIP3      2981            0.0000000000
     33859      3181  TIP3      H2             11.4737663022       23.5712571376       38.6641168730  TIP3      2981            0.0000000000
     33860      3182  TIP3      OH2            11.9551134288       25.9193425824       36.7976265208  TIP3      2982            0.0000000000
     33861      3182  TIP3      H1             11.7017346493       26.6412285482       36.1810305014  TIP3      2982            0.0000000000
     33862      3182  TIP3      H2             12.9189736375       25.8904775756       36.6138030172  TIP3      2982            0.0000000000
     33863      3183  TIP3      OH2             2.7334446068       22.7564645792       37.7919762079  TIP3      2983            0.0000000000
     33864      3183  TIP3      H1              1.9635914489       22.1794746731       37.6251082933  TIP3      2983            0.0000000000
     33865      3183  TIP3      H2              3.3868958516       22.3860125877       37.1704071863  TIP3      2983            0.0000000000
     33866      3184  TIP3      OH2             5.4610046303       17.3194359562       33.8166296695  TIP3      2984            0.0000000000
     33867      3184  TIP3      H1              5.2802829489       18.2848281660       33.7174732024  TIP3      2984            0.0000000000
     33868      3184  TIP3      H2              4.7130497159       16.9549749832       33.3115160698  TIP3      2984            0.0000000000
     33869      3185  TIP3      OH2             6.7327221411       21.6526520450       37.4434377547  TIP3      2985            0.0000000000
     33870      3185  TIP3      H1              6.4175334191       21.4199866469       38.3385651026  TIP3      2985            0.0000000000
     33871      3185  TIP3      H2              5.9514938407       21.4497296403       36.9015736724  TIP3      2985            0.0000000000
     33872      3186  TIP3      OH2             9.4547722181       20.7988486618       36.5362551896  TIP3      2986            0.0000000000
     33873      3186  TIP3      H1              8.4894509445       20.8511768432       36.6429739732  TIP3      2986            0.0000000000
     33874      3186  TIP3      H2              9.7176739819       20.1560410985       37.2232211235  TIP3      2986            0.0000000000
     33875      3187  TIP3      OH2            11.0353497556       19.4161223757       38.4325167621  TIP3      2987            0.0000000000
     33876      3187  TIP3      H1             10.9882729052       18.4377868050       38.4632013250  TIP3      2987            0.0000000000
     33877      3187  TIP3      H2             10.7874151002       19.7076978761       39.3318396546  TIP3      2987            0.0000000000
     33878      3188  TIP3      OH2             0.8109884801       20.6939189520       37.5475462211  TIP3      2988            0.0000000000
     33879      3188  TIP3      H1              1.0576523770       19.9571688887       36.9633987983  TIP3      2988            0.0000000000
     33880      3188  TIP3      H2              0.7207555845       20.2461226114       38.4126635341  TIP3      2988            0.0000000000
     33881      3189  TIP3      OH2             5.6762935623       16.7172636688       36.5151297089  TIP3      2989            0.0000000000
     33882      3189  TIP3      H1              6.3568512969       16.0147305578       36.4991359415  TIP3      2989            0.0000000000
     33883      3189  TIP3      H2              5.5619224164       16.8585976937       35.5545809133  TIP3      2989            0.0000000000
     33884      3190  TIP3      OH2             6.0389535182       18.3298653132       38.6333456819  TIP3      2990            0.0000000000
     33885      3190  TIP3      H1              5.8653395399       17.8243748433       37.8006991097  TIP3      2990            0.0000000000
     33886      3190  TIP3      H2              5.4400312517       19.0948917340       38.5322564475  TIP3      2990            0.0000000000
     33887      3191  TIP3      OH2            -2.1139128144       35.2220843895       26.2284673250  TIP3      2991            0.0000000000
     33888      3191  TIP3      H1             -2.8641665045       34.7619613128       25.7849134624  TIP3      2991            0.0000000000
     33889      3191  TIP3      H2             -1.8911068421       34.5762699413       26.9241727740  TIP3      2991            0.0000000000
     33890      3192  TIP3      OH2            -1.2980989385       33.3262158168       28.0985272355  TIP3      2992            0.0000000000
     33891      3192  TIP3      H1             -1.6895839625       32.4656951898       28.3089862620  TIP3      2992            0.0000000000
     33892      3192  TIP3      H2             -1.1258022447       33.6786980770       28.9893233479  TIP3      2992            0.0000000000
     33893      3193  TIP3      OH2            16.1996893771       34.1451865168       31.0436432306  TIP3      2993            0.0000000000
     33894      3193  TIP3      H1             16.2340169028       34.2915749547       32.0049715478  TIP3      2993            0.0000000000
     33895      3193  TIP3      H2             16.9110233005       34.7173597768       30.7412873556  TIP3      2993            0.0000000000
     33896      3194  TIP3      OH2            15.8072852502       33.7075292151       33.9890965510  TIP3      2994            0.0000000000
     33897      3194  TIP3      H1             15.3067677314       32.9526381344       33.6133729878  TIP3      2994            0.0000000000
     33898      3194  TIP3      H2             16.2727272335       33.2566948931       34.7127930856  TIP3      2994            0.0000000000
     33899      3195  TIP3      OH2            14.2196390103       29.4497507709       38.6650980417  TIP3      2995            0.0000000000
     33900      3195  TIP3      H1             13.3115465115       29.4247468956       39.0286922711  TIP3      2995            0.0000000000
     33901      3195  TIP3      H2             14.5909723833       30.2575365142       39.0753206139  TIP3      2995            0.0000000000
     33902      3196  TIP3      OH2            15.5129828673       27.8443872378       24.1549544736  TIP3      2996            0.0000000000
     33903      3196  TIP3      H1             16.4196194139       28.1643616800       24.2723371196  TIP3      2996            0.0000000000
     33904      3196  TIP3      H2             15.5425138696       27.0471334247       24.7158525905  TIP3      2996            0.0000000000
     33905      3197  TIP3      OH2            15.9183372104       25.8474911722       25.9631192613  TIP3      2997            0.0000000000
     33906      3197  TIP3      H1             15.1473614613       25.3654084675       26.3342624340  TIP3      2997            0.0000000000
     33907      3197  TIP3      H2             16.4830638145       25.9965848471       26.7474924590  TIP3      2997            0.0000000000
     33908      3198  TIP3      OH2            15.6508787532       28.5455746435       30.9614014870  TIP3      2998            0.0000000000
     33909      3198  TIP3      H1             16.4666449422       28.1721685795       30.5834892938  TIP3      2998            0.0000000000
     33910      3198  TIP3      H2             15.7943946099       29.5005597445       30.7969288315  TIP3      2998            0.0000000000
     33911      3199  TIP3      OH2            14.2062221478       31.4694006025       33.2315004485  TIP3      2999            0.0000000000
     33912      3199  TIP3      H1             13.5160286076       31.8016263520       33.8250105731  TIP3      2999            0.0000000000
     33913      3199  TIP3      H2             13.6610789919       31.0566640318       32.5272595396  TIP3      2999            0.0000000000
     33914      3200  TIP3      OH2            14.5093585091       22.9075109815       20.9084832350  TIP3      3000            0.0000000000
     33915      3200  TIP3      H1             14.6690771398       23.5895729413       20.2371952586  TIP3      3000            0.0000000000
     33916      3200  TIP3      H2             14.4227414206       22.1164651804       20.3511572127  TIP3      3000            0.0000000000
     33917      3201  TIP3      OH2            13.7370826118       24.3259519200       26.5659560020  TIP3      3001            0.0000000000
     33918      3201  TIP3      H1             13.5620126846       23.3768443023       26.5057062426  TIP3      3001            0.0000000000
     33919      3201  TIP3      H2             13.3803816125       24.5453119192       27.4440520781  TIP3      3001            0.0000000000
     33920      3202  TIP3      OH2            -1.2789181000       26.4192835490       30.6124277024  TIP3      3002            0.0000000000
     33921      3202  TIP3      H1             -1.1029163488       26.3354295797       29.6505621293  TIP3      3002            0.0000000000
     33922      3202  TIP3      H2             -0.3854877121       26.2381509255       30.9642758882  TIP3      3002            0.0000000000
     33923      3203  TIP3      OH2            14.5772265513       26.2971144477       36.2420734272  TIP3      3003            0.0000000000
     33924      3203  TIP3      H1             15.1877823492       25.5404958028       36.3733816463  TIP3      3003            0.0000000000
     33925      3203  TIP3      H2             15.1810399145       27.0696272110       36.2454465489  TIP3      3003            0.0000000000
     33926      3204  TIP3      OH2            16.0751282495       24.1751355581       36.8905861328  TIP3      3004            0.0000000000
     33927      3204  TIP3      H1             15.1933385281       23.7751338152       36.7375929747  TIP3      3004            0.0000000000
     33928      3204  TIP3      H2             16.6484969545       23.3943244781       36.8158757249  TIP3      3004            0.0000000000
     33929      3205  TIP3      OH2            13.3827800090       21.8864058514       24.9990256016  TIP3      3005            0.0000000000
     33930      3205  TIP3      H1             13.6972441375       20.9655395025       25.1467935524  TIP3      3005            0.0000000000
     33931      3205  TIP3      H2             14.1784694755       22.3163403561       24.6514023148  TIP3      3005            0.0000000000
     33932      3206  TIP3      OH2            14.0233374837       22.4568507565       30.4537794660  TIP3      3006            0.0000000000
     33933      3206  TIP3      H1             14.9840476180       22.6867168405       30.4396896508  TIP3      3006            0.0000000000
     33934      3206  TIP3      H2             13.8354851283       22.5972154669       31.3934653591  TIP3      3006            0.0000000000
     33935      3207  TIP3      OH2            14.0904447016       23.1779027529       33.2411936307  TIP3      3007            0.0000000000
     33936      3207  TIP3      H1             13.2041060906       23.4669427673       33.5491590465  TIP3      3007            0.0000000000
     33937      3207  TIP3      H2             14.5217009783       24.0350229055       33.0121191037  TIP3      3007            0.0000000000
     33938      3208  TIP3      OH2            -1.6581308956       21.7143205133       36.7725395837  TIP3      3008            0.0000000000
     33939      3208  TIP3      H1             -0.7205525294       21.4982970430       36.9580807993  TIP3      3008            0.0000000000
     33940      3208  TIP3      H2             -2.1180482889       20.8910011808       37.0410498224  TIP3      3008            0.0000000000
     33941      3209  TIP3      OH2            16.3678251017       17.2396850799       38.5766234016  TIP3      3009            0.0000000000
     33942      3209  TIP3      H1             16.7148938165       16.5806048828       37.9506269615  TIP3      3009            0.0000000000
     33943      3209  TIP3      H2             16.4630349432       18.0538346399       38.0438069688  TIP3      3009            0.0000000000
     33944      3210  TIP3      OH2            14.0671239512       19.1916612011       25.0551758386  TIP3      3010            0.0000000000
     33945      3210  TIP3      H1             14.2858769889       18.7655946040       25.9135954763  TIP3      3010            0.0000000000
     33946      3210  TIP3      H2             13.4428274444       18.5641427488       24.6446597560  TIP3      3010            0.0000000000
     33947      3211  TIP3      OH2            -0.4618479269       20.0074961537       29.6166638125  TIP3      3011            0.0000000000
     33948      3211  TIP3      H1              0.0015175381       19.1827237192       29.8737041262  TIP3      3011            0.0000000000
     33949      3211  TIP3      H2              0.0930106688       20.6983020112       30.0046476437  TIP3      3011            0.0000000000
     33950      3212  TIP3      OH2            -2.1791908512       23.0103720107       30.6490566588  TIP3      3012            0.0000000000
     33951      3212  TIP3      H1             -1.6148238218       22.7573625449       29.8901919819  TIP3      3012            0.0000000000
     33952      3212  TIP3      H2             -1.7088553868       23.8119842722       30.9192106794  TIP3      3012            0.0000000000
     33953      3213  TIP3      OH2            15.8913050628       19.3340874181       36.9287193056  TIP3      3013            0.0000000000
     33954      3213  TIP3      H1             14.9556043628       19.6119965826       36.8716799157  TIP3      3013            0.0000000000
     33955      3213  TIP3      H2             15.9142137534       18.7886704171       36.1284482454  TIP3      3013            0.0000000000
     33956      3214  TIP3      OH2            -1.8407760696       19.2799830943       24.7422715561  TIP3      3014            0.0000000000
     33957      3214  TIP3      H1             -2.7734144029       19.4639516345       24.5637925310  TIP3      3014            0.0000000000
     33958      3214  TIP3      H2             -1.3967350323       19.7478456374       24.0050896643  TIP3      3014            0.0000000000
     33959      3215  TIP3      OH2            12.9316054306       34.2142487851       26.6486328262  TIP3      3015            0.0000000000
     33960      3215  TIP3      H1             13.6143924629       33.8949096473       26.0356007639  TIP3      3015            0.0000000000
     33961      3215  TIP3      H2             13.4459285190       34.7249865735       27.2911826167  TIP3      3015            0.0000000000
     33962      3216  TIP3      OH2            -1.8656480854       17.9173922873       33.0163568196  TIP3      3016            0.0000000000
     33963      3216  TIP3      H1             -2.5325172404       17.7281100234       33.6991673277  TIP3      3016            0.0000000000
     33964      3216  TIP3      H2             -2.3223120013       18.5940024359       32.4769002141  TIP3      3016            0.0000000000
     33965      3217  TIP3      OH2             0.3735558218       31.1133423348       37.1775553117  TIP3      3017            0.0000000000
     33966      3217  TIP3      H1             -0.4607180632       31.3451245570       36.7366782690  TIP3      3017            0.0000000000
     33967      3217  TIP3      H2              0.1073628580       31.0441291513       38.0974468105  TIP3      3017            0.0000000000
     33968      3218  TIP3      OH2             3.2708042738       32.1328045564       33.4588321418  TIP3      3018            0.0000000000
     33969      3218  TIP3      H1              2.9451531426       33.0104869714       33.1876684715  TIP3      3018            0.0000000000
     33970      3218  TIP3      H2              4.1989651011       32.2132672468       33.1550753875  TIP3      3018            0.0000000000
     33971      3219  TIP3      OH2             7.5934136428       33.5608167151       36.3596358808  TIP3      3019            0.0000000000
     33972      3219  TIP3      H1              7.7336075312       33.2004231534       37.2674859208  TIP3      3019            0.0000000000
     33973      3219  TIP3      H2              8.4951954324       33.8590118671       36.1122135806  TIP3      3019            0.0000000000
     33974      3220  TIP3      OH2             9.8943714962       34.8791533220       35.6621821481  TIP3      3020            0.0000000000
     33975      3220  TIP3      H1             10.6124041611       34.2732740140       35.4299457790  TIP3      3020            0.0000000000
     33976      3220  TIP3      H2             10.2571016362       35.2382503414       36.4978134737  TIP3      3020            0.0000000000
     33977      3221  TIP3      OH2            14.9025804820       17.4313202101       34.7816106796  TIP3      3021            0.0000000000
     33978      3221  TIP3      H1             14.0742118834       17.7302833756       34.3696281661  TIP3      3021            0.0000000000
     33979      3221  TIP3      H2             15.0696769953       16.6075738772       34.2651243662  TIP3      3021            0.0000000000
     33980      3222  TIP3      OH2             0.6921628869       35.3585893526       33.4493807568  TIP3      3022            0.0000000000
     33981      3222  TIP3      H1             -0.0395266315       35.8632720260       33.0606777228  TIP3      3022            0.0000000000
     33982      3222  TIP3      H2              0.3747277503       35.1937320883       34.3469005143  TIP3      3022            0.0000000000
     33983      3223  TIP3      OH2             3.1840986222       34.9387475807       32.5323941510  TIP3      3023            0.0000000000
     33984      3223  TIP3      H1              2.2886031424       35.0994946025       32.9177622749  TIP3      3023            0.0000000000
     33985      3223  TIP3      H2              3.1247194553       35.5186852926       31.7518528237  TIP3      3023            0.0000000000
     33986      3224  TIP3      OH2             7.8749753255       34.8512724698       31.7198850762  TIP3      3024            0.0000000000
     33987      3224  TIP3      H1              7.4180509688       35.3882210152       31.0511920091  TIP3      3024            0.0000000000
     33988      3224  TIP3      H2              8.0182126194       35.5095562086       32.4327519331  TIP3      3024            0.0000000000
     33989      3225  TIP3      OH2            10.1634221238       33.6636706466       32.7248883935  TIP3      3025            0.0000000000
     33990      3225  TIP3      H1              9.3106825822       33.9420528650       32.3563896361  TIP3      3025            0.0000000000
     33991      3225  TIP3      H2             10.6508829703       34.5059036735       32.6472562534  TIP3      3025            0.0000000000
     33992      3226  TIP3      OH2            12.7639688873       35.2578993960       32.9568504342  TIP3      3026            0.0000000000
     33993      3226  TIP3      H1             12.6886414974       36.2144497544       32.7326056254  TIP3      3026            0.0000000000
     33994      3226  TIP3      H2             12.9506504923       34.8684039328       32.0771914807  TIP3      3026            0.0000000000
     33995      3227  TIP3      OH2             0.1694103426       34.0253951193       30.3848639641  TIP3      3027            0.0000000000
     33996      3227  TIP3      H1              0.0445662851       33.5644929312       31.2443832431  TIP3      3027            0.0000000000
     33997      3227  TIP3      H2              0.9826724216       33.6264680756       30.0119407455  TIP3      3027            0.0000000000
     33998      3228  TIP3      OH2             2.2345693515       32.7212238832       29.0490732407  TIP3      3028            0.0000000000
     33999      3228  TIP3      H1              2.0679918212       31.7895784786       29.2856586036  TIP3      3028            0.0000000000
     34000      3228  TIP3      H2              3.0854289838       32.8762429985       29.5068910221  TIP3      3028            0.0000000000
     34001      3229  TIP3      OH2             4.8420548722       33.2061625671       29.9298859575  TIP3      3029            0.0000000000
     34002      3229  TIP3      H1              4.9929026493       32.2816837995       29.6660487903  TIP3      3029            0.0000000000
     34003      3229  TIP3      H2              4.8709480106       33.1473148967       30.8984848100  TIP3      3029            0.0000000000
     34004      3230  TIP3      OH2             8.2884990140       18.8572080752       29.0650239522  TIP3      3030            0.0000000000
     34005      3230  TIP3      H1              7.6139697925       18.2166504470       29.3479154302  TIP3      3030            0.0000000000
     34006      3230  TIP3      H2              8.8417037309       18.3205026117       28.4853435525  TIP3      3030            0.0000000000
     34007      3231  TIP3      OH2            13.4275159374       16.9023996760       29.1259515688  TIP3      3031            0.0000000000
     34008      3231  TIP3      H1             14.0392872526       17.4972346103       28.6204600002  TIP3      3031            0.0000000000
     34009      3231  TIP3      H2             12.5446228200       17.2669592219       28.8999042770  TIP3      3031            0.0000000000
     34010      3232  TIP3      OH2            15.0914574352       18.1639898894       27.4008706573  TIP3      3032            0.0000000000
     34011      3232  TIP3      H1             15.7843104963       17.5818667747       27.0009028783  TIP3      3032            0.0000000000
     34012      3232  TIP3      H2             15.6067940646       18.9928542261       27.5356283146  TIP3      3032            0.0000000000
     34013      3233  TIP3      OH2             0.6694021538       17.4823677443       26.9285302919  TIP3      3033            0.0000000000
     34014      3233  TIP3      H1             -0.1189808622       17.2938826211       26.3854261641  TIP3      3033            0.0000000000
     34015      3233  TIP3      H2              1.1259588463       16.6214079514       26.8450719914  TIP3      3033            0.0000000000
     34016      3234  TIP3      OH2            -0.5302680209       17.2307806317       22.7095740682  TIP3      3034            0.0000000000
     34017      3234  TIP3      H1             -0.0734946024       17.8886105849       22.1484713212  TIP3      3034            0.0000000000
     34018      3234  TIP3      H2             -1.1275578229       17.7956505819       23.2214486285  TIP3      3034            0.0000000000
     34019      3235  TIP3      OH2             5.1265915236       17.3929677006       26.7083298467  TIP3      3035            0.0000000000
     34020      3235  TIP3      H1              6.0229225192       17.7673244514       26.6150672392  TIP3      3035            0.0000000000
     34021      3235  TIP3      H2              5.1024762472       17.1911578851       27.6425291581  TIP3      3035            0.0000000000
     34022      3236  TIP3      OH2            10.8474877584       17.4279851690       28.3219811541  TIP3      3036            0.0000000000
     34023      3236  TIP3      H1             10.7962940241       17.5427700046       27.3646812715  TIP3      3036            0.0000000000
     34024      3236  TIP3      H2             10.4749527770       16.5205694090       28.4476720178  TIP3      3036            0.0000000000
     34025      3237  TIP3      OH2            12.0940834398       17.4286141390       23.9476336986  TIP3      3037            0.0000000000
     34026      3237  TIP3      H1             11.3642738621       18.0665523856       23.8665060650  TIP3      3037            0.0000000000
     34027      3237  TIP3      H2             11.6424643551       16.6146617562       24.2753860835  TIP3      3037            0.0000000000
     34028      3238  TIP3      OH2            -0.6551501392       33.1870270954       23.6628897668  TIP3      3038            0.0000000000
     34029      3238  TIP3      H1             -1.2974966302       33.1832607111       22.9373138158  TIP3      3038            0.0000000000
     34030      3238  TIP3      H2             -0.5985337004       34.1467457307       23.7860247097  TIP3      3038            0.0000000000
     34031      3239  TIP3      OH2             1.3177520779       19.1314136123       21.2003558223  TIP3      3039            0.0000000000
     34032      3239  TIP3      H1              1.8272179633       18.5640601280       20.6246244559  TIP3      3039            0.0000000000
     34033      3239  TIP3      H2              1.9829068141       19.4614246869       21.8271648930  TIP3      3039            0.0000000000
     34034      3240  TIP3      OH2             6.2030493040       19.4372429621       23.5731585768  TIP3      3040            0.0000000000
     34035      3240  TIP3      H1              6.5533243465       18.8646608206       24.2715207200  TIP3      3040            0.0000000000
     34036      3240  TIP3      H2              6.3763094073       20.3099215256       23.9775923643  TIP3      3040            0.0000000000
     34037      3241  TIP3      OH2             8.2862609366       34.3313641977       21.9819831390  TIP3      3041            0.0000000000
     34038      3241  TIP3      H1              9.0701745695       34.8150682133       21.7728231121  TIP3      3041            0.0000000000
     34039      3241  TIP3      H2              7.9020498579       34.0578305428       21.1230061730  TIP3      3041            0.0000000000
     34040      3242  TIP3      OH2            14.9796448538       34.0103913439       24.6784924583  TIP3      3042            0.0000000000
     34041      3242  TIP3      H1             14.6997601015       33.2201943503       24.1560655884  TIP3      3042            0.0000000000
     34042      3242  TIP3      H2             14.8277842195       34.7573977352       24.0565762355  TIP3      3042            0.0000000000
     34043      3243  TIP3      OH2             0.5468438894       18.0248296670       36.3615283510  TIP3      3043            0.0000000000
     34044      3243  TIP3      H1              0.1574427473       17.2299690521       36.7673805721  TIP3      3043            0.0000000000
     34045      3243  TIP3      H2              1.4552628581       17.9836014678       36.7455747685  TIP3      3043            0.0000000000
     34046      3244  TIP3      OH2             2.5509475888       17.4064536859       38.0057626623  TIP3      3044            0.0000000000
     34047      3244  TIP3      H1              3.4455442519       17.0716366099       37.7912259271  TIP3      3044            0.0000000000
     34048      3244  TIP3      H2              2.1748876871       16.6013643732       38.4108880868  TIP3      3044            0.0000000000
     34049      3245  TIP3      OH2            10.9498739553       16.6949531974       38.1577804677  TIP3      3045            0.0000000000
     34050      3245  TIP3      H1             11.0440990547       16.2215572204       39.0074812090  TIP3      3045            0.0000000000
     34051      3245  TIP3      H2             11.8670984926       16.6609845087       37.8149381305  TIP3      3045            0.0000000000
     34052      3246  TIP3      OH2            14.1605867856       32.7467986811       36.7888791142  TIP3      3046            0.0000000000
     34053      3246  TIP3      H1             13.3569163121       32.6094269984       36.2414427434  TIP3      3046            0.0000000000
     34054      3246  TIP3      H2             14.0424762189       33.6947157757       37.0068868598  TIP3      3046            0.0000000000
     34055      3247  TIP3      OH2            28.6129948896       26.6198653679       26.7535792995  TIP3      3047            0.0000000000
     34056      3247  TIP3      H1             28.5901671704       27.6000627664       26.7331068089  TIP3      3047            0.0000000000
     34057      3247  TIP3      H2             27.8755202224       26.3870135162       26.1670401626  TIP3      3047            0.0000000000
     34058      3248  TIP3      OH2            27.4605437593       25.8734396629       30.2590166028  TIP3      3048            0.0000000000
     34059      3248  TIP3      H1             27.4514513307       25.2306037043       30.9833792758  TIP3      3048            0.0000000000
     34060      3248  TIP3      H2             27.1083262053       25.3636606153       29.5125648231  TIP3      3048            0.0000000000
     34061      3249  TIP3      OH2            19.8124585122       25.5553587530       31.8206794319  TIP3      3049            0.0000000000
     34062      3249  TIP3      H1             19.8955913080       24.8668008262       32.5131462071  TIP3      3049            0.0000000000
     34063      3249  TIP3      H2             20.5616847262       26.1255025543       32.0469336454  TIP3      3049            0.0000000000
     34064      3250  TIP3      OH2            31.1383292121       28.8213074873       28.5515489126  TIP3      3050            0.0000000000
     34065      3250  TIP3      H1             30.7357948291       28.1094447416       29.0587584890  TIP3      3050            0.0000000000
     34066      3250  TIP3      H2             31.1721994460       29.5333253343       29.2203728946  TIP3      3050            0.0000000000
     34067      3251  TIP3      OH2            20.7380153686       30.0034410023       30.3203730443  TIP3      3051            0.0000000000
     34068      3251  TIP3      H1             20.4285224228       29.1321866772       30.0050561462  TIP3      3051            0.0000000000
     34069      3251  TIP3      H2             21.6935922000       29.8206532405       30.3683586066  TIP3      3051            0.0000000000
     34070      3252  TIP3      OH2            17.3577811504       23.5632466292       25.8688057209  TIP3      3052            0.0000000000
     34071      3252  TIP3      H1             16.9459932159       24.4447211637       25.7347661711  TIP3      3052            0.0000000000
     34072      3252  TIP3      H2             16.8226110467       23.0337600214       25.2638124412  TIP3      3052            0.0000000000
     34073      3253  TIP3      OH2            18.0895977521       25.7867872631       27.9430745560  TIP3      3053            0.0000000000
     34074      3253  TIP3      H1             18.3625320589       24.9655030568       28.3929379096  TIP3      3053            0.0000000000
     34075      3253  TIP3      H2             18.7941499544       25.9032384905       27.2919579745  TIP3      3053            0.0000000000
     34076      3254  TIP3      OH2            28.2899787929       33.9972714132       28.7848386511  TIP3      3054            0.0000000000
     34077      3254  TIP3      H1             28.9042312760       33.2668480497       28.5287761395  TIP3      3054            0.0000000000
     34078      3254  TIP3      H2             28.0283799728       33.6637793437       29.6499956926  TIP3      3054            0.0000000000
     34079      3255  TIP3      OH2            25.8364996867       28.2770440413       30.7411148957  TIP3      3055            0.0000000000
     34080      3255  TIP3      H1             26.1728887054       27.6503268989       30.0841197504  TIP3      3055            0.0000000000
     34081      3255  TIP3      H2             26.6442213467       28.4277716999       31.2626040515  TIP3      3055            0.0000000000
     34082      3256  TIP3      OH2            34.4729842449       19.9291414670       31.4694733366  TIP3      3056            0.0000000000
     34083      3256  TIP3      H1             34.5977227622       20.5342867331       32.2297206617  TIP3      3056            0.0000000000
     34084      3256  TIP3      H2             35.0196865467       20.3724917913       30.8057683333  TIP3      3056            0.0000000000
     34085      3257  TIP3      OH2            29.0039851821       22.7464301080       31.0576747112  TIP3      3057            0.0000000000
     34086      3257  TIP3      H1             29.1724772467       21.7875558113       31.0629866213  TIP3      3057            0.0000000000
     34087      3257  TIP3      H2             28.8994408292       22.8857819856       30.0966281620  TIP3      3057            0.0000000000
     34088      3258  TIP3      OH2            22.1168652790       20.8358119044       28.2711599122  TIP3      3058            0.0000000000
     34089      3258  TIP3      H1             22.2251490800       21.6694200813       27.7770465601  TIP3      3058            0.0000000000
     34090      3258  TIP3      H2             21.7191572827       20.2617339493       27.5810767650  TIP3      3058            0.0000000000
     34091      3259  TIP3      OH2            29.8667131518       20.9062755539       26.6376370163  TIP3      3059            0.0000000000
     34092      3259  TIP3      H1             30.5126490425       20.5985762909       27.3138751228  TIP3      3059            0.0000000000
     34093      3259  TIP3      H2             30.4185051515       21.4945866679       26.1090728261  TIP3      3059            0.0000000000
     34094      3260  TIP3      OH2            18.7420314147       23.2468597275       29.0048350767  TIP3      3060            0.0000000000
     34095      3260  TIP3      H1             19.4102758365       22.7024033091       29.4601936258  TIP3      3060            0.0000000000
     34096      3260  TIP3      H2             18.8443767861       22.9327156021       28.0942334860  TIP3      3060            0.0000000000
     34097      3261  TIP3      OH2            23.8971865282       24.8040296059       28.3284634295  TIP3      3061            0.0000000000
     34098      3261  TIP3      H1             24.5703527330       24.2206337891       28.7191283135  TIP3      3061            0.0000000000
     34099      3261  TIP3      H2             23.3857305792       24.1501566044       27.8116731634  TIP3      3061            0.0000000000
     34100      3262  TIP3      OH2            34.8991747973       21.3396907934       33.7423844653  TIP3      3062            0.0000000000
     34101      3262  TIP3      H1             34.2814298446       22.0944948790       33.6170677076  TIP3      3062            0.0000000000
     34102      3262  TIP3      H2             34.9196139242       21.2779598075       34.7062764545  TIP3      3062            0.0000000000
     34103      3263  TIP3      OH2            21.0274213233       19.7355726516       32.3106371076  TIP3      3063            0.0000000000
     34104      3263  TIP3      H1             20.7442378436       20.3067563086       31.5650407202  TIP3      3063            0.0000000000
     34105      3263  TIP3      H2             20.3501631435       19.9636773234       32.9930396168  TIP3      3063            0.0000000000
     34106      3264  TIP3      OH2            28.3111269360       29.1995012092       25.8593103036  TIP3      3064            0.0000000000
     34107      3264  TIP3      H1             28.0325676388       28.9526238889       24.9635469567  TIP3      3064            0.0000000000
     34108      3264  TIP3      H2             27.9969262259       30.1291236058       25.9302581168  TIP3      3064            0.0000000000
     34109      3265  TIP3      OH2            23.5361718109       27.3781905010       32.5478178390  TIP3      3065            0.0000000000
     34110      3265  TIP3      H1             22.8334535613       28.0236920693       32.7714495408  TIP3      3065            0.0000000000
     34111      3265  TIP3      H2             24.2450834480       27.9756441673       32.2594400488  TIP3      3065            0.0000000000
     34112      3266  TIP3      OH2            31.6626012017       20.2693638411       28.6388606534  TIP3      3066            0.0000000000
     34113      3266  TIP3      H1             31.4455558078       19.4943591024       29.1648601215  TIP3      3066            0.0000000000
     34114      3266  TIP3      H2             32.3379065609       20.6967618380       29.1929272232  TIP3      3066            0.0000000000
     34115      3267  TIP3      OH2            20.5961266714       21.5885782612       30.3453417290  TIP3      3067            0.0000000000
     34116      3267  TIP3      H1             21.2239498263       22.2791948496       30.6552694325  TIP3      3067            0.0000000000
     34117      3267  TIP3      H2             21.1111368935       21.1831221216       29.6017290559  TIP3      3067            0.0000000000
     34118      3268  TIP3      OH2            21.9842629943       29.3913345771       33.3610011580  TIP3      3068            0.0000000000
     34119      3268  TIP3      H1             21.9357828210       30.3065329035       33.0310565454  TIP3      3068            0.0000000000
     34120      3268  TIP3      H2             21.1046197368       29.3073460318       33.8098127881  TIP3      3068            0.0000000000
     34121      3269  TIP3      OH2            18.0099929046       29.0024045955       24.1523706496  TIP3      3069            0.0000000000
     34122      3269  TIP3      H1             17.8447033283       29.3092777934       23.2433954154  TIP3      3069            0.0000000000
     34123      3269  TIP3      H2             18.1591072640       29.8259000294       24.6469349655  TIP3      3069            0.0000000000
     34124      3270  TIP3      OH2            31.6731941009       30.6640062816       30.9244531665  TIP3      3070            0.0000000000
     34125      3270  TIP3      H1             30.7056093099       30.7808031722       31.0401638774  TIP3      3070            0.0000000000
     34126      3270  TIP3      H2             31.9453034505       31.5788693227       30.7154991476  TIP3      3070            0.0000000000
     34127      3271  TIP3      OH2            31.9880117224       18.9480011521       32.3169988357  TIP3      3071            0.0000000000
     34128      3271  TIP3      H1             31.2675203166       19.5839025854       32.2182179805  TIP3      3071            0.0000000000
     34129      3271  TIP3      H2             32.7046019515       19.3591487127       31.7931016485  TIP3      3071            0.0000000000
     34130      3272  TIP3      OH2            24.9620603452       17.0702813868       29.7776340348  TIP3      3072            0.0000000000
     34131      3272  TIP3      H1             24.8180551081       16.1067858837       29.6999395139  TIP3      3072            0.0000000000
     34132      3272  TIP3      H2             24.0837361731       17.3749811382       30.0842512905  TIP3      3072            0.0000000000
     34133      3273  TIP3      OH2            29.9152947135       32.4454531294       27.4968278022  TIP3      3073            0.0000000000
     34134      3273  TIP3      H1             30.3527144374       31.6962831737       27.0326981112  TIP3      3073            0.0000000000
     34135      3273  TIP3      H2             30.4415502933       33.1868487833       27.1880604129  TIP3      3073            0.0000000000
     34136      3274  TIP3      OH2            31.1501379766       30.3927324485       26.0119407454  TIP3      3074            0.0000000000
     34137      3274  TIP3      H1             30.8464440746       29.6846340960       25.4179810551  TIP3      3074            0.0000000000
     34138      3274  TIP3      H2             31.1886958291       29.8889425995       26.8504152457  TIP3      3074            0.0000000000
     34139      3275  TIP3      OH2            32.7676528068       28.9725053163       34.5220249561  TIP3      3075            0.0000000000
     34140      3275  TIP3      H1             32.9095020962       28.3177531042       33.8036243646  TIP3      3075            0.0000000000
     34141      3275  TIP3      H2             32.9710195979       29.8154008065       34.0805635573  TIP3      3075            0.0000000000
     34142      3276  TIP3      OH2            27.2677325930       25.8308073169       24.2589595181  TIP3      3076            0.0000000000
     34143      3276  TIP3      H1             26.5617640321       26.4277503599       23.9364322636  TIP3      3076            0.0000000000
     34144      3276  TIP3      H2             27.9586051396       25.9705954611       23.5922394356  TIP3      3076            0.0000000000
     34145      3277  TIP3      OH2            27.3592731712       24.4359061774       21.3110624948  TIP3      3077            0.0000000000
     34146      3277  TIP3      H1             28.0354336511       24.3620066181       21.9886777710  TIP3      3077            0.0000000000
     34147      3277  TIP3      H2             27.5536533149       23.6948621361       20.7108826151  TIP3      3077            0.0000000000
     34148      3278  TIP3      OH2            34.6424668001       25.2905284723       32.5637775249  TIP3      3078            0.0000000000
     34149      3278  TIP3      H1             33.9862817772       26.0129563475       32.6056489490  TIP3      3078            0.0000000000
     34150      3278  TIP3      H2             35.1443451678       25.5327645101       31.7607812836  TIP3      3078            0.0000000000
     34151      3279  TIP3      OH2            30.7041038694       26.0230012758       25.1915945749  TIP3      3079            0.0000000000
     34152      3279  TIP3      H1             29.9820311451       26.3182377835       25.8051399620  TIP3      3079            0.0000000000
     34153      3279  TIP3      H2             31.1893376173       25.4089819932       25.7740862417  TIP3      3079            0.0000000000
     34154      3280  TIP3      OH2            30.6357970294       24.2380501662       34.3378332068  TIP3      3080            0.0000000000
     34155      3280  TIP3      H1             30.6289647332       25.0530561489       34.8662400657  TIP3      3080            0.0000000000
     34156      3280  TIP3      H2             30.0096113386       24.5265620732       33.6405918883  TIP3      3080            0.0000000000
     34157      3281  TIP3      OH2            22.3151794272       26.7230939492       27.1171603879  TIP3      3081            0.0000000000
     34158      3281  TIP3      H1             22.0007598928       26.3366137151       26.2663374396  TIP3      3081            0.0000000000
     34159      3281  TIP3      H2             22.9347620353       26.0381549345       27.4563626644  TIP3      3081            0.0000000000
     34160      3282  TIP3      OH2            23.6395987524       30.1120483889       29.8033599254  TIP3      3082            0.0000000000
     34161      3282  TIP3      H1             23.6351140240       29.5894880400       28.9929315585  TIP3      3082            0.0000000000
     34162      3282  TIP3      H2             24.4224682774       29.7558696133       30.2623976697  TIP3      3082            0.0000000000
     34163      3283  TIP3      OH2            22.6494146785       25.4764376677       30.7886157414  TIP3      3083            0.0000000000
     34164      3283  TIP3      H1             23.1975470643       25.5742481961       29.9851689509  TIP3      3083            0.0000000000
     34165      3283  TIP3      H2             23.0419617037       26.1420755604       31.3962871170  TIP3      3083            0.0000000000
     34166      3284  TIP3      OH2            29.0730202480       31.0496645868       31.4970728880  TIP3      3084            0.0000000000
     34167      3284  TIP3      H1             28.7845317231       31.6835787578       32.1613089176  TIP3      3084            0.0000000000
     34168      3284  TIP3      H2             28.8135866139       30.1961584302       31.9150015092  TIP3      3084            0.0000000000
     34169      3285  TIP3      OH2            23.6022171573       29.9133573617       35.4802967358  TIP3      3085            0.0000000000
     34170      3285  TIP3      H1             23.1913505812       30.6606926893       35.9624206867  TIP3      3085            0.0000000000
     34171      3285  TIP3      H2             22.9307474425       29.7079105228       34.7843050156  TIP3      3085            0.0000000000
     34172      3286  TIP3      OH2            29.6828324593       25.1878741021       22.8559161400  TIP3      3086            0.0000000000
     34173      3286  TIP3      H1             30.0980570604       25.4954780319       23.7076209333  TIP3      3086            0.0000000000
     34174      3286  TIP3      H2             29.9450740937       25.8428726094       22.1890528740  TIP3      3086            0.0000000000
     34175      3287  TIP3      OH2            20.5378454043       26.0763365259       34.6113191820  TIP3      3087            0.0000000000
     34176      3287  TIP3      H1             20.6088318191       26.7214083001       35.3425916895  TIP3      3087            0.0000000000
     34177      3287  TIP3      H2             19.5910150141       26.1609350565       34.4230910703  TIP3      3087            0.0000000000
     34178      3288  TIP3      OH2            27.3651916702       32.0275605739       26.3104300292  TIP3      3088            0.0000000000
     34179      3288  TIP3      H1             27.6970473825       32.2802034029       27.1791694049  TIP3      3088            0.0000000000
     34180      3288  TIP3      H2             26.7183768150       32.7158428995       26.1163622429  TIP3      3088            0.0000000000
     34181      3289  TIP3      OH2            21.8460197101       31.9416608666       36.2280248997  TIP3      3089            0.0000000000
     34182      3289  TIP3      H1             21.7864548885       31.8389787059       35.2632844209  TIP3      3089            0.0000000000
     34183      3289  TIP3      H2             20.9129203583       31.8112660884       36.4903894987  TIP3      3089            0.0000000000
     34184      3290  TIP3      OH2            33.3152850082       16.9879098070       22.8204811509  TIP3      3090            0.0000000000
     34185      3290  TIP3      H1             32.3694505416       17.0949303702       23.0614527200  TIP3      3090            0.0000000000
     34186      3290  TIP3      H2             33.5317299576       17.8361622193       22.4205196748  TIP3      3090            0.0000000000
     34187      3291  TIP3      OH2            21.2831597661       25.7506063898       24.7218006004  TIP3      3091            0.0000000000
     34188      3291  TIP3      H1             21.0005122348       26.5400925648       24.2272213194  TIP3      3091            0.0000000000
     34189      3291  TIP3      H2             20.6218961937       25.0961050716       24.4656231897  TIP3      3091            0.0000000000
     34190      3292  TIP3      OH2            17.3735741784       28.1800780325       33.6431064431  TIP3      3092            0.0000000000
     34191      3292  TIP3      H1             16.9374616000       28.1006548400       32.7758885563  TIP3      3092            0.0000000000
     34192      3292  TIP3      H2             17.4620287628       27.2329769008       33.8552087049  TIP3      3092            0.0000000000
     34193      3293  TIP3      OH2            17.1416424060       30.9322568277       30.3928298515  TIP3      3093            0.0000000000
     34194      3293  TIP3      H1             18.0990420042       30.8039537606       30.3947778882  TIP3      3093            0.0000000000
     34195      3293  TIP3      H2             17.0580823216       31.7363534441       30.9176451309  TIP3      3093            0.0000000000
     34196      3294  TIP3      OH2            35.3964265788       31.6326469784       36.1117678157  TIP3      3094            0.0000000000
     34197      3294  TIP3      H1             35.2763833257       30.6721160000       36.0707320965  TIP3      3094            0.0000000000
     34198      3294  TIP3      H2             34.5255658458       31.8761297223       36.4931444307  TIP3      3094            0.0000000000
     34199      3295  TIP3      OH2            26.3361882980       31.1606861170       34.9673257250  TIP3      3095            0.0000000000
     34200      3295  TIP3      H1             26.3933606771       32.0031824470       35.4747709416  TIP3      3095            0.0000000000
     34201      3295  TIP3      H2             25.4646820753       30.7970650660       35.2174796745  TIP3      3095            0.0000000000
     34202      3296  TIP3      OH2            26.7922669073       34.8890242889       24.7170840451  TIP3      3096            0.0000000000
     34203      3296  TIP3      H1             26.6124930720       34.8360917512       23.7738884002  TIP3      3096            0.0000000000
     34204      3296  TIP3      H2             26.7376289322       35.8430742660       24.9018477936  TIP3      3096            0.0000000000
     34205      3297  TIP3      OH2            20.4168442762       33.7830770079       26.5944208505  TIP3      3097            0.0000000000
     34206      3297  TIP3      H1             20.5750560940       33.3669621431       27.4707783548  TIP3      3097            0.0000000000
     34207      3297  TIP3      H2             19.5734310786       33.3652676607       26.3636840435  TIP3      3097            0.0000000000
     34208      3298  TIP3      OH2            29.9272513149       34.1625167406       21.7935452051  TIP3      3098            0.0000000000
     34209      3298  TIP3      H1             30.1956355516       33.3837276433       21.2670316284  TIP3      3098            0.0000000000
     34210      3298  TIP3      H2             29.8299286288       33.7886234628       22.6696808457  TIP3      3098            0.0000000000
     34211      3299  TIP3      OH2            29.4811968135       33.9955112100       24.5481931694  TIP3      3099            0.0000000000
     34212      3299  TIP3      H1             28.5003702747       34.0842745090       24.6337434647  TIP3      3099            0.0000000000
     34213      3299  TIP3      H2             29.6390181194       33.1422417828       24.9774989858  TIP3      3099            0.0000000000
     34214      3300  TIP3      OH2            32.5605737242       23.0863137391       36.5536049825  TIP3      3100            0.0000000000
     34215      3300  TIP3      H1             32.0411844957       23.5381202798       35.8677337109  TIP3      3100            0.0000000000
     34216      3300  TIP3      H2             32.5091632662       22.1638101306       36.2633852864  TIP3      3100            0.0000000000
     34217      3301  TIP3      OH2            19.6657725599       29.4960177216       34.5736718488  TIP3      3101            0.0000000000
     34218      3301  TIP3      H1             19.8868841010       29.1324083344       35.4593812593  TIP3      3101            0.0000000000
     34219      3301  TIP3      H2             18.7955313784       29.0984586540       34.3661437914  TIP3      3101            0.0000000000
     34220      3302  TIP3      OH2            22.3473211786       17.9724390702       30.5260703376  TIP3      3102            0.0000000000
     34221      3302  TIP3      H1             21.4438799544       17.8448842530       30.1589252409  TIP3      3102            0.0000000000
     34222      3302  TIP3      H2             22.2120493854       18.8020223716       31.0133744635  TIP3      3102            0.0000000000
     34223      3303  TIP3      OH2            26.9924574299       17.6339124236       33.8877301115  TIP3      3103            0.0000000000
     34224      3303  TIP3      H1             27.3866060101       17.2143176929       34.6701873682  TIP3      3103            0.0000000000
     34225      3303  TIP3      H2             26.0183747282       17.5297670417       34.0220711019  TIP3      3103            0.0000000000
     34226      3304  TIP3      OH2            30.2777916727       21.4907104096       34.8017012750  TIP3      3104            0.0000000000
     34227      3304  TIP3      H1             29.7076062445       21.2804913507       35.5818964710  TIP3      3104            0.0000000000
     34228      3304  TIP3      H2             30.0921370438       22.4138627796       34.5614628272  TIP3      3104            0.0000000000
     34229      3305  TIP3      OH2            22.4495263654       22.9457807927       31.7761914647  TIP3      3105            0.0000000000
     34230      3305  TIP3      H1             21.7128311046       22.9365644723       32.4183893699  TIP3      3105            0.0000000000
     34231      3305  TIP3      H2             22.4068890225       23.8581433702       31.4178697441  TIP3      3105            0.0000000000
     34232      3306  TIP3      OH2            22.4105466273       23.0612252028       26.6479600026  TIP3      3106            0.0000000000
     34233      3306  TIP3      H1             21.4714473889       22.8119052013       26.5104921378  TIP3      3106            0.0000000000
     34234      3306  TIP3      H2             22.7926967427       22.7663689445       25.7967764965  TIP3      3106            0.0000000000
     34235      3307  TIP3      OH2            27.9227159202       23.5445733842       25.3886931516  TIP3      3107            0.0000000000
     34236      3307  TIP3      H1             27.5196310080       24.3902617989       25.0770803644  TIP3      3107            0.0000000000
     34237      3307  TIP3      H2             28.6087706762       23.3907416059       24.7285498701  TIP3      3107            0.0000000000
     34238      3308  TIP3      OH2            26.9928237321       23.7574297944       36.8183621379  TIP3      3108            0.0000000000
     34239      3308  TIP3      H1             26.4554866037       23.0049525314       37.1681911833  TIP3      3108            0.0000000000
     34240      3308  TIP3      H2             27.8019272367       23.6731994541       37.3542294753  TIP3      3108            0.0000000000
     34241      3309  TIP3      OH2            28.9658025395       23.0584059624       28.2600403211  TIP3      3109            0.0000000000
     34242      3309  TIP3      H1             28.6797286741       23.6202242886       27.5212711053  TIP3      3109            0.0000000000
     34243      3309  TIP3      H2             29.0584535884       22.2068275687       27.7929748921  TIP3      3109            0.0000000000
     34244      3310  TIP3      OH2            20.0699327483       23.1912339033       33.4540736488  TIP3      3110            0.0000000000
     34245      3310  TIP3      H1             20.1465852783       23.6029764459       34.3311419683  TIP3      3110            0.0000000000
     34246      3310  TIP3      H2             19.6283111195       22.3542136820       33.6674653878  TIP3      3110            0.0000000000
     34247      3311  TIP3      OH2            16.7270812081       20.2981167631       27.4468861321  TIP3      3111            0.0000000000
     34248      3311  TIP3      H1             17.4100621579       20.2653439609       28.1471005460  TIP3      3111            0.0000000000
     34249      3311  TIP3      H2             17.1808583843       19.9295622395       26.6655688981  TIP3      3111            0.0000000000
     34250      3312  TIP3      OH2            18.0144651660       21.0761759836       22.8668914480  TIP3      3112            0.0000000000
     34251      3312  TIP3      H1             18.4835598378       21.6516969252       22.2458872072  TIP3      3112            0.0000000000
     34252      3312  TIP3      H2             17.3036896147       21.6778372458       23.1411521808  TIP3      3112            0.0000000000
     34253      3313  TIP3      OH2            28.1602406681       24.6379053924       32.8127505412  TIP3      3113            0.0000000000
     34254      3313  TIP3      H1             28.5411527435       23.9507249461       32.2291121871  TIP3      3113            0.0000000000
     34255      3313  TIP3      H2             27.6917568816       24.1114903712       33.4855317072  TIP3      3113            0.0000000000
     34256      3314  TIP3      OH2            24.9507202111       20.6247890340       27.6656089215  TIP3      3114            0.0000000000
     34257      3314  TIP3      H1             24.0127878518       20.6216800446       27.9584259881  TIP3      3114            0.0000000000
     34258      3314  TIP3      H2             25.4416924300       20.4439451112       28.4813383635  TIP3      3114            0.0000000000
     34259      3315  TIP3      OH2            19.7743574171       22.1644544412       26.4921196150  TIP3      3115            0.0000000000
     34260      3315  TIP3      H1             18.8895117788       22.3125289066       26.0993058733  TIP3      3115            0.0000000000
     34261      3315  TIP3      H2             20.0629194457       21.3249859187       26.0857700827  TIP3      3115            0.0000000000
     34262      3316  TIP3      OH2            23.4141450607       22.2099246586       24.1945195469  TIP3      3116            0.0000000000
     34263      3316  TIP3      H1             24.3775353722       22.3080247181       24.2899658169  TIP3      3116            0.0000000000
     34264      3316  TIP3      H2             23.1715717290       22.8573987558       23.5061651670  TIP3      3116            0.0000000000
     34265      3317  TIP3      OH2            29.3633548493       19.8541662445       30.8939959610  TIP3      3117            0.0000000000
     34266      3317  TIP3      H1             28.6789297115       19.9037651438       31.5975725071  TIP3      3117            0.0000000000
     34267      3317  TIP3      H2             28.8578726939       19.5955926107       30.1092996898  TIP3      3117            0.0000000000
     34268      3318  TIP3      OH2            22.1781789637       23.3090881900       21.7421027101  TIP3      3118            0.0000000000
     34269      3318  TIP3      H1             21.5439689389       23.0774239422       21.0457953501  TIP3      3118            0.0000000000
     34270      3318  TIP3      H2             22.9509504174       23.6166633263       21.2449962529  TIP3      3118            0.0000000000
     34271      3319  TIP3      OH2            32.5737685990       35.4681726122       37.2154656614  TIP3      3119            0.0000000000
     34272      3319  TIP3      H1             32.8203162908       35.8865983244       36.3710222073  TIP3      3119            0.0000000000
     34273      3319  TIP3      H2             33.2638760086       35.8578759979       37.7763197388  TIP3      3119            0.0000000000
     34274      3320  TIP3      OH2            20.2260409781       27.9929357966       36.7740516947  TIP3      3120            0.0000000000
     34275      3320  TIP3      H1             20.9578083005       28.2142802372       37.3769056892  TIP3      3120            0.0000000000
     34276      3320  TIP3      H2             19.4718716508       28.0371062475       37.3990246198  TIP3      3120            0.0000000000
     34277      3321  TIP3      OH2            26.2439854614       23.3735611834       29.5448488407  TIP3      3121            0.0000000000
     34278      3321  TIP3      H1             26.8414257547       22.8365489744       29.0113604714  TIP3      3121            0.0000000000
     34279      3321  TIP3      H2             26.0974919853       22.8240090714       30.3264722811  TIP3      3121            0.0000000000
     34280      3322  TIP3      OH2            21.2598630829       19.5144276685       25.9932193995  TIP3      3122            0.0000000000
     34281      3322  TIP3      H1             20.9284855816       18.5985547798       25.9732079774  TIP3      3122            0.0000000000
     34282      3322  TIP3      H2             22.0409606971       19.4433152578       25.4277610804  TIP3      3122            0.0000000000
     34283      3323  TIP3      OH2            24.8836350071       21.7011843773       31.9582159331  TIP3      3123            0.0000000000
     34284      3323  TIP3      H1             24.0598539531       22.2197783619       32.0452322944  TIP3      3123            0.0000000000
     34285      3323  TIP3      H2             25.4398702536       22.0536761460       32.6789971488  TIP3      3123            0.0000000000
     34286      3324  TIP3      OH2            25.4658289313       27.8727257893       23.6696267229  TIP3      3124            0.0000000000
     34287      3324  TIP3      H1             24.6427790829       27.4554322460       23.3217137016  TIP3      3124            0.0000000000
     34288      3324  TIP3      H2             25.2329632852       28.0502169263       24.5992666612  TIP3      3124            0.0000000000
     34289      3325  TIP3      OH2            32.6699013049       27.1266953218       32.4599465747  TIP3      3125            0.0000000000
     34290      3325  TIP3      H1             33.2232461584       27.6107243472       31.8220445066  TIP3      3125            0.0000000000
     34291      3325  TIP3      H2             31.8060462859       27.1685306734       32.0002820043  TIP3      3125            0.0000000000
     34292      3326  TIP3      OH2            29.3232152648       20.7223349734       21.8412845308  TIP3      3126            0.0000000000
     34293      3326  TIP3      H1             28.3896926632       20.8919141870       21.6412663307  TIP3      3126            0.0000000000
     34294      3326  TIP3      H2             29.6180254680       21.5872775690       22.1825751642  TIP3      3126            0.0000000000
     34295      3327  TIP3      OH2            26.9631057304       28.1866513580       34.9123385507  TIP3      3127            0.0000000000
     34296      3327  TIP3      H1             26.6161211965       27.7583697805       35.7012230641  TIP3      3127            0.0000000000
     34297      3327  TIP3      H2             26.7065762117       29.1093151070       35.0113787245  TIP3      3127            0.0000000000
     34298      3328  TIP3      OH2            30.0983595585       22.6079816682       23.4494011621  TIP3      3128            0.0000000000
     34299      3328  TIP3      H1             30.9451737427       22.5332264014       23.9345519004  TIP3      3128            0.0000000000
     34300      3328  TIP3      H2             30.0667528299       23.4911704220       23.0414504851  TIP3      3128            0.0000000000
     34301      3329  TIP3      OH2            20.5856721489       27.3190285520       29.4540328818  TIP3      3129            0.0000000000
     34302      3329  TIP3      H1             21.2597177859       27.2354982403       28.7541508737  TIP3      3129            0.0000000000
     34303      3329  TIP3      H2             20.6433761493       26.4622612288       29.9104449243  TIP3      3129            0.0000000000
     34304      3330  TIP3      OH2            27.5859164387       29.3745009926       22.7938864467  TIP3      3130            0.0000000000
     34305      3330  TIP3      H1             27.2134236154       30.2419031216       23.0517876403  TIP3      3130            0.0000000000
     34306      3330  TIP3      H2             26.8198508054       28.7701675982       22.8941940102  TIP3      3130            0.0000000000
     34307      3331  TIP3      OH2            17.5762640672       25.7180860510       34.7158644170  TIP3      3131            0.0000000000
     34308      3331  TIP3      H1             17.7399619171       25.2754842220       35.5726120247  TIP3      3131            0.0000000000
     34309      3331  TIP3      H2             16.9517594783       25.1110476038       34.2781144770  TIP3      3131            0.0000000000
     34310      3332  TIP3      OH2            24.6573860167       25.3932145306       36.6937400391  TIP3      3132            0.0000000000
     34311      3332  TIP3      H1             24.2866509385       24.9181594517       35.9443170178  TIP3      3132            0.0000000000
     34312      3332  TIP3      H2             25.5110695694       24.9431366525       36.8613299293  TIP3      3132            0.0000000000
     34313      3333  TIP3      OH2            29.2682562445       30.6164983845       34.8442866412  TIP3      3133            0.0000000000
     34314      3333  TIP3      H1             28.3440819204       30.7958497820       34.6025044403  TIP3      3133            0.0000000000
     34315      3333  TIP3      H2             29.2354451127       30.9136518454       35.7741694437  TIP3      3133            0.0000000000
     34316      3334  TIP3      OH2            34.9356827759       22.7797287304       23.2049843554  TIP3      3134            0.0000000000
     34317      3334  TIP3      H1             34.4117678551       22.4587058693       22.4821983152  TIP3      3134            0.0000000000
     34318      3334  TIP3      H2             35.0537432925       23.7306882245       22.9689665772  TIP3      3134            0.0000000000
     34319      3335  TIP3      OH2            34.9166552968       28.6426854139       36.0475442814  TIP3      3135            0.0000000000
     34320      3335  TIP3      H1             34.0322760123       28.8707584300       35.6723182731  TIP3      3135            0.0000000000
     34321      3335  TIP3      H2             35.4698700294       28.6181577005       35.2374065684  TIP3      3135            0.0000000000
     34322      3336  TIP3      OH2            33.1767097859       31.6359527872       23.6446862995  TIP3      3136            0.0000000000
     34323      3336  TIP3      H1             32.8763495082       30.7863321651       23.9878870712  TIP3      3136            0.0000000000
     34324      3336  TIP3      H2             33.5499569471       31.4410028030       22.7766574073  TIP3      3136            0.0000000000
     34325      3337  TIP3      OH2            30.4457672931       26.4374439878       30.7440356757  TIP3      3137            0.0000000000
     34326      3337  TIP3      H1             29.5016367642       26.2328856840       30.6290422807  TIP3      3137            0.0000000000
     34327      3337  TIP3      H2             30.8704393770       25.6807438866       30.3013075188  TIP3      3137            0.0000000000
     34328      3338  TIP3      OH2            22.9563818820       30.7718358284       26.8408097845  TIP3      3138            0.0000000000
     34329      3338  TIP3      H1             23.4493946653       31.5778522099       26.6287126582  TIP3      3138            0.0000000000
     34330      3338  TIP3      H2             22.0771234632       30.9996011740       26.5084601588  TIP3      3138            0.0000000000
     34331      3339  TIP3      OH2            24.3689851632       28.4349494182       26.3628299234  TIP3      3139            0.0000000000
     34332      3339  TIP3      H1             24.0530234300       29.3563262975       26.4417349693  TIP3      3139            0.0000000000
     34333      3339  TIP3      H2             23.6505289004       27.9441712696       26.8061113215  TIP3      3139            0.0000000000
     34334      3340  TIP3      OH2            24.8210544961       32.6212593958       32.7733424933  TIP3      3140            0.0000000000
     34335      3340  TIP3      H1             25.2765116024       33.4276645510       32.4891501676  TIP3      3140            0.0000000000
     34336      3340  TIP3      H2             25.4380286956       32.2788073029       33.4434817209  TIP3      3140            0.0000000000
     34337      3341  TIP3      OH2            23.0778998668       33.4245171019       25.9015586177  TIP3      3141            0.0000000000
     34338      3341  TIP3      H1             22.1119719879       33.5324492360       26.0463608641  TIP3      3141            0.0000000000
     34339      3341  TIP3      H2             23.4083578977       34.2719742274       26.2526610212  TIP3      3141            0.0000000000
     34340      3342  TIP3      OH2            28.3362559125       28.6132072636       32.3844548260  TIP3      3142            0.0000000000
     34341      3342  TIP3      H1             28.0207744956       28.4253060449       33.2927735513  TIP3      3142            0.0000000000
     34342      3342  TIP3      H2             28.9832907353       27.9087792980       32.2188177291  TIP3      3142            0.0000000000
     34343      3343  TIP3      OH2            30.6292145001       29.6721727776       21.4842524480  TIP3      3143            0.0000000000
     34344      3343  TIP3      H1             30.9421343735       29.2131278509       22.2840235040  TIP3      3143            0.0000000000
     34345      3343  TIP3      H2             29.6852570980       29.5025428746       21.5995335981  TIP3      3143            0.0000000000
     34346      3344  TIP3      OH2            31.1650779272       33.1763493104       34.8665725693  TIP3      3144            0.0000000000
     34347      3344  TIP3      H1             30.4617259713       32.7040953822       34.3855729469  TIP3      3144            0.0000000000
     34348      3344  TIP3      H2             31.3441672652       33.8939925438       34.2219078883  TIP3      3144            0.0000000000
     34349      3345  TIP3      OH2            35.1474218999       34.0866992550       21.8554680364  TIP3      3145            0.0000000000
     34350      3345  TIP3      H1             35.8228225244       34.6422797335       21.4515764788  TIP3      3145            0.0000000000
     34351      3345  TIP3      H2             34.4205210899       34.7195125945       21.9865411724  TIP3      3145            0.0000000000
     34352      3346  TIP3      OH2            19.2234974942       20.4543220399       34.2625813561  TIP3      3146            0.0000000000
     34353      3346  TIP3      H1             18.3170830504       20.8070360345       34.2450304925  TIP3      3146            0.0000000000
     34354      3346  TIP3      H2             19.1112555943       19.6098561200       34.7271879383  TIP3      3146            0.0000000000
     34355      3347  TIP3      OH2            31.4482831546       28.2703136650       23.6851506833  TIP3      3147            0.0000000000
     34356      3347  TIP3      H1             31.2028967827       27.5220484050       24.2641852799  TIP3      3147            0.0000000000
     34357      3347  TIP3      H2             32.3913941625       28.3680589037       23.8959572157  TIP3      3147            0.0000000000
     34358      3348  TIP3      OH2            18.8315653842       32.2352698023       32.6913222395  TIP3      3148            0.0000000000
     34359      3348  TIP3      H1             19.1426417983       31.3167575523       32.6995230226  TIP3      3148            0.0000000000
     34360      3348  TIP3      H2             19.0980119180       32.5305611947       33.5702926251  TIP3      3148            0.0000000000
     34361      3349  TIP3      OH2            23.6027773623       30.3071910472       22.4196564555  TIP3      3149            0.0000000000
     34362      3349  TIP3      H1             23.8296307081       29.7724673209       23.1852272672  TIP3      3149            0.0000000000
     34363      3349  TIP3      H2             23.6601698003       31.2356496197       22.7131696400  TIP3      3149            0.0000000000
     34364      3350  TIP3      OH2            27.9563678379       20.2260109108       33.2320154712  TIP3      3150            0.0000000000
     34365      3350  TIP3      H1             28.6709640284       20.2891280956       33.8746380789  TIP3      3150            0.0000000000
     34366      3350  TIP3      H2             27.5732639527       19.3517682853       33.4331186082  TIP3      3150            0.0000000000
     34367      3351  TIP3      OH2            28.7557181569       19.7813408103       24.3396279134  TIP3      3151            0.0000000000
     34368      3351  TIP3      H1             28.9132971105       20.2818480494       23.5246075755  TIP3      3151            0.0000000000
     34369      3351  TIP3      H2             29.2698724491       20.2841812060       24.9900836092  TIP3      3151            0.0000000000
     34370      3352  TIP3      OH2            26.4456675122       32.0404670234       23.1875113290  TIP3      3152            0.0000000000
     34371      3352  TIP3      H1             25.5638085966       32.4577423974       23.1676362111  TIP3      3152            0.0000000000
     34372      3352  TIP3      H2             26.8968602094       32.4443837469       22.4368923477  TIP3      3152            0.0000000000
     34373      3353  TIP3      OH2            25.9309716106       21.5314881986       25.1148922436  TIP3      3153            0.0000000000
     34374      3353  TIP3      H1             26.7046840634       22.1290040328       25.1460481549  TIP3      3153            0.0000000000
     34375      3353  TIP3      H2             25.6595225586       21.4263668533       26.0483764770  TIP3      3153            0.0000000000
     34376      3354  TIP3      OH2            26.4873915015       22.5808004121       34.3315997482  TIP3      3154            0.0000000000
     34377      3354  TIP3      H1             26.5726718122       23.1356787334       35.1309427645  TIP3      3154            0.0000000000
     34378      3354  TIP3      H2             27.1521125823       21.8864702156       34.4158789245  TIP3      3154            0.0000000000
     34379      3355  TIP3      OH2            26.7737883723       18.6003278832       25.9960931335  TIP3      3155            0.0000000000
     34380      3355  TIP3      H1             26.4543099922       19.2387381750       26.6625193517  TIP3      3155            0.0000000000
     34381      3355  TIP3      H2             27.4767055488       19.1537608667       25.5763666587  TIP3      3155            0.0000000000
     34382      3356  TIP3      OH2            23.7781969576       33.0522825577       23.1649222759  TIP3      3156            0.0000000000
     34383      3356  TIP3      H1             23.8684827748       33.8276299467       22.5918709191  TIP3      3156            0.0000000000
     34384      3356  TIP3      H2             23.4899455082       33.3718373639       24.0445809050  TIP3      3156            0.0000000000
     34385      3357  TIP3      OH2            22.4928941103       19.7164726136       22.7049891633  TIP3      3157            0.0000000000
     34386      3357  TIP3      H1             22.3583313541       20.6088639143       23.0867202113  TIP3      3157            0.0000000000
     34387      3357  TIP3      H2             23.3851208059       19.5271246573       23.0286096068  TIP3      3157            0.0000000000
     34388      3358  TIP3      OH2            32.6564219683       20.4412549359       35.1701570309  TIP3      3158            0.0000000000
     34389      3358  TIP3      H1             31.7292755185       20.7608959653       35.0413414585  TIP3      3158            0.0000000000
     34390      3358  TIP3      H2             32.9629520331       20.4294064886       34.2473888058  TIP3      3158            0.0000000000
     34391      3359  TIP3      OH2            31.2811832919       24.2258477346       29.1679756969  TIP3      3159            0.0000000000
     34392      3359  TIP3      H1             30.4531821717       23.7853753570       28.9042981292  TIP3      3159            0.0000000000
     34393      3359  TIP3      H2             31.7522722026       23.5452224709       29.7001619771  TIP3      3159            0.0000000000
     34394      3360  TIP3      OH2            20.6647269115       30.1829374317       21.7647407572  TIP3      3160            0.0000000000
     34395      3360  TIP3      H1             21.3449665408       30.7916502598       22.0736671626  TIP3      3160            0.0000000000
     34396      3360  TIP3      H2             21.1736194852       29.7033427680       21.0865283350  TIP3      3160            0.0000000000
     34397      3361  TIP3      OH2            32.3395925331       33.4623770669       30.8377033024  TIP3      3161            0.0000000000
     34398      3361  TIP3      H1             32.2605860016       34.1648688876       30.1670525933  TIP3      3161            0.0000000000
     34399      3361  TIP3      H2             33.2989371521       33.5251657913       31.0346686579  TIP3      3161            0.0000000000
     34400      3362  TIP3      OH2            19.8298616638       17.6122999912       29.6610512248  TIP3      3162            0.0000000000
     34401      3362  TIP3      H1             19.6372515854       17.6290377676       28.6966036051  TIP3      3162            0.0000000000
     34402      3362  TIP3      H2             19.4160460811       16.7590366397       29.9097515762  TIP3      3162            0.0000000000
     34403      3363  TIP3      OH2            18.7804001335       31.5432059709       25.7809979339  TIP3      3163            0.0000000000
     34404      3363  TIP3      H1             17.9165068932       31.9793698719       25.7620045006  TIP3      3163            0.0000000000
     34405      3363  TIP3      H2             19.2713439566       31.9961129149       25.0870478594  TIP3      3163            0.0000000000
     34406      3364  TIP3      OH2            17.9883540547       34.1808969192       37.0795405093  TIP3      3164            0.0000000000
     34407      3364  TIP3      H1             18.5936354035       33.9851620009       37.8227802754  TIP3      3164            0.0000000000
     34408      3364  TIP3      H2             17.5934313009       33.3083601270       36.9030861360  TIP3      3164            0.0000000000
     34409      3365  TIP3      OH2            22.6871250908       33.0927356418       38.6920004527  TIP3      3165            0.0000000000
     34410      3365  TIP3      H1             23.4413545605       32.5983211232       39.0278946367  TIP3      3165            0.0000000000
     34411      3365  TIP3      H2             22.6507877150       32.8184869684       37.7558048181  TIP3      3165            0.0000000000
     34412      3366  TIP3      OH2            29.1703613571       31.4903000032       37.4470002334  TIP3      3166            0.0000000000
     34413      3366  TIP3      H1             28.8487396677       30.6017830320       37.6967360572  TIP3      3166            0.0000000000
     34414      3366  TIP3      H2             29.9485602741       31.6169680199       38.0252085989  TIP3      3166            0.0000000000
     34415      3367  TIP3      OH2            31.3214868793       32.3432451033       20.2205878398  TIP3      3167            0.0000000000
     34416      3367  TIP3      H1             31.6316070279       31.6011173025       20.7762008701  TIP3      3167            0.0000000000
     34417      3367  TIP3      H2             32.1247458361       32.6885278955       19.8122382064  TIP3      3167            0.0000000000
     34418      3368  TIP3      OH2            17.8965762767       27.9548650084       38.0849203999  TIP3      3168            0.0000000000
     34419      3368  TIP3      H1             18.0609167897       27.0440675307       37.7801089801  TIP3      3168            0.0000000000
     34420      3368  TIP3      H2             17.1601769875       28.2151580898       37.5067277073  TIP3      3168            0.0000000000
     34421      3369  TIP3      OH2            22.2827464699       28.2552164060       20.1054237657  TIP3      3169            0.0000000000
     34422      3369  TIP3      H1             22.4078738642       27.5350023102       20.7388650783  TIP3      3169            0.0000000000
     34423      3369  TIP3      H2             23.0280251546       28.2204728370       19.5124928510  TIP3      3169            0.0000000000
     34424      3370  TIP3      OH2            24.6175194914       27.9640607495       37.4584345362  TIP3      3170            0.0000000000
     34425      3370  TIP3      H1             24.2723466228       28.2505980835       36.5881244261  TIP3      3170            0.0000000000
     34426      3370  TIP3      H2             24.6868791899       26.9792440076       37.3727477042  TIP3      3170            0.0000000000
     34427      3371  TIP3      OH2            30.3098642123       27.7989661944       34.8539786742  TIP3      3171            0.0000000000
     34428      3371  TIP3      H1             31.0987931105       28.3831749034       34.8009177555  TIP3      3171            0.0000000000
     34429      3371  TIP3      H2             29.6138186827       28.4723063866       34.8959352441  TIP3      3171            0.0000000000
     34430      3372  TIP3      OH2            18.7608718370       25.1749537415       37.4526837823  TIP3      3172            0.0000000000
     34431      3372  TIP3      H1             19.2323631448       24.3379772947       37.3635857404  TIP3      3172            0.0000000000
     34432      3372  TIP3      H2             18.6036380119       25.1957778317       38.4125514179  TIP3      3172            0.0000000000
     34433      3373  TIP3      OH2            23.4569333466       26.3426874807       22.5289446582  TIP3      3173            0.0000000000
     34434      3373  TIP3      H1             22.9494400158       25.8135796771       23.1608198376  TIP3      3173            0.0000000000
     34435      3373  TIP3      H2             23.7455915073       25.6551224357       21.8784875267  TIP3      3173            0.0000000000
     34436      3374  TIP3      OH2            22.7183031162       24.1223682438       34.8097903648  TIP3      3174            0.0000000000
     34437      3374  TIP3      H1             22.1291974589       24.8478988468       35.0722309010  TIP3      3174            0.0000000000
     34438      3374  TIP3      H2             23.1125443134       24.4955146510       34.0007846054  TIP3      3174            0.0000000000
     34439      3375  TIP3      OH2            24.4987912806       24.6272252447       20.7097098946  TIP3      3175            0.0000000000
     34440      3375  TIP3      H1             24.3847180524       24.3042174117       19.8027606934  TIP3      3175            0.0000000000
     34441      3375  TIP3      H2             25.4744960826       24.5845353478       20.8088138248  TIP3      3175            0.0000000000
     34442      3376  TIP3      OH2            27.8163012130       26.7517327955       38.2115142861  TIP3      3176            0.0000000000
     34443      3376  TIP3      H1             28.7442783732       26.6391670715       37.9872065425  TIP3      3176            0.0000000000
     34444      3376  TIP3      H2             27.6125032509       25.9170688013       38.7007034768  TIP3      3176            0.0000000000
     34445      3377  TIP3      OH2            23.1286482980       21.5049760414       35.8748921089  TIP3      3177            0.0000000000
     34446      3377  TIP3      H1             23.2413802817       20.7970308928       35.2127087749  TIP3      3177            0.0000000000
     34447      3377  TIP3      H2             23.0781314760       22.3142171280       35.3232200830  TIP3      3177            0.0000000000
     34448      3378  TIP3      OH2            23.5306576950       19.8869974127       33.4274937625  TIP3      3178            0.0000000000
     34449      3378  TIP3      H1             24.0383385647       20.3526113440       32.7204714644  TIP3      3178            0.0000000000
     34450      3378  TIP3      H2             22.6367238824       19.8102030036       33.0217295979  TIP3      3178            0.0000000000
     34451      3379  TIP3      OH2            25.0657955360       25.3707887736       33.6558381874  TIP3      3179            0.0000000000
     34452      3379  TIP3      H1             25.8279455186       25.2149869802       33.0930382500  TIP3      3179            0.0000000000
     34453      3379  TIP3      H2             24.7061739577       26.2120322547       33.3323811361  TIP3      3179            0.0000000000
     34454      3380  TIP3      OH2            29.5436132618       23.0901956423       38.5417579937  TIP3      3180            0.0000000000
     34455      3380  TIP3      H1             29.7632772174       22.1552536482       38.5384328024  TIP3      3180            0.0000000000
     34456      3380  TIP3      H2             30.3812978016       23.5469321432       38.6662424631  TIP3      3180            0.0000000000
     34457      3381  TIP3      OH2            30.7933430296       25.9518704969       36.8341070699  TIP3      3181            0.0000000000
     34458      3381  TIP3      H1             30.5485383674       26.6314984566       36.1668814513  TIP3      3181            0.0000000000
     34459      3381  TIP3      H2             31.7488614734       25.8821292458       36.6025178568  TIP3      3181            0.0000000000
     34460      3382  TIP3      OH2            21.5615396090       22.7608546636       37.7669584175  TIP3      3182            0.0000000000
     34461      3382  TIP3      H1             20.8047162276       22.1694530719       37.5940862079  TIP3      3182            0.0000000000
     34462      3382  TIP3      H2             22.2454395043       22.3888276901       37.1802228174  TIP3      3182            0.0000000000
     34463      3383  TIP3      OH2            24.3224476925       17.3219684430       33.8211716949  TIP3      3183            0.0000000000
     34464      3383  TIP3      H1             24.1385261837       18.2860255201       33.7194587610  TIP3      3183            0.0000000000
     34465      3383  TIP3      H2             23.5734457669       16.9569940801       33.3143939730  TIP3      3183            0.0000000000
     34466      3384  TIP3      OH2            25.5960819577       21.6376911194       37.4437886107  TIP3      3184            0.0000000000
     34467      3384  TIP3      H1             25.2886707915       21.4505257531       38.3542914453  TIP3      3184            0.0000000000
     34468      3384  TIP3      H2             24.7991635964       21.4548228163       36.9178557308  TIP3      3184            0.0000000000
     34469      3385  TIP3      OH2            28.3004624714       20.7923679124       36.5263426370  TIP3      3185            0.0000000000
     34470      3385  TIP3      H1             27.3409308480       20.8648804930       36.6632140796  TIP3      3185            0.0000000000
     34471      3385  TIP3      H2             28.5773274064       20.1740944658       37.2283931791  TIP3      3185            0.0000000000
     34472      3386  TIP3      OH2            29.8544001939       19.4216046276       38.4260523871  TIP3      3186            0.0000000000
     34473      3386  TIP3      H1             29.8651149107       18.4495030685       38.4737765354  TIP3      3186            0.0000000000
     34474      3386  TIP3      H2             29.6442696501       19.7335787902       39.3321678775  TIP3      3186            0.0000000000
     34475      3387  TIP3      OH2            19.6663236788       20.6982273410       37.5520068732  TIP3      3187            0.0000000000
     34476      3387  TIP3      H1             19.9115081502       19.9623610958       36.9634560979  TIP3      3187            0.0000000000
     34477      3387  TIP3      H2             19.5746842460       20.2467722434       38.4132593530  TIP3      3187            0.0000000000
     34478      3388  TIP3      OH2            24.5532652157       16.7060800346       36.5308642748  TIP3      3188            0.0000000000
     34479      3388  TIP3      H1             25.2268855063       16.0092764429       36.4294886428  TIP3      3188            0.0000000000
     34480      3388  TIP3      H2             24.4057040635       16.8804471893       35.5762313557  TIP3      3188            0.0000000000
     34481      3389  TIP3      OH2            24.8369272372       18.2402520368       38.6723878895  TIP3      3189            0.0000000000
     34482      3389  TIP3      H1             24.7102902379       17.8542396706       37.7670841358  TIP3      3189            0.0000000000
     34483      3389  TIP3      H2             24.3541451906       19.1013527880       38.5528259618  TIP3      3189            0.0000000000
     34484      3390  TIP3      OH2            17.9472279749       29.8633577957       21.2468381059  TIP3      3190            0.0000000000
     34485      3390  TIP3      H1             18.9123031232       29.9493533458       21.4635458285  TIP3      3190            0.0000000000
     34486      3390  TIP3      H2             18.0086566596       29.1608849700       20.5864627237  TIP3      3190            0.0000000000
     34487      3391  TIP3      OH2            16.7402234058       35.2082879988       26.2050645509  TIP3      3191            0.0000000000
     34488      3391  TIP3      H1             15.9668668375       34.7553997847       25.7888479043  TIP3      3191            0.0000000000
     34489      3391  TIP3      H2             16.9746232198       34.5725414908       26.9047697168  TIP3      3191            0.0000000000
     34490      3392  TIP3      OH2            17.5147769580       33.3309851157       28.1245713696  TIP3      3192            0.0000000000
     34491      3392  TIP3      H1             17.1625051776       32.4522532238       28.3250465819  TIP3      3192            0.0000000000
     34492      3392  TIP3      H2             17.7451202529       33.6637279659       29.0070559919  TIP3      3192            0.0000000000
     34493      3393  TIP3      OH2            35.0575783112       34.1302304148       31.0372473402  TIP3      3193            0.0000000000
     34494      3393  TIP3      H1             35.0623162887       34.2846632118       31.9952467857  TIP3      3193            0.0000000000
     34495      3393  TIP3      H2             35.7729841926       34.7041865363       30.7456538806  TIP3      3193            0.0000000000
     34496      3394  TIP3      OH2            34.6443402628       33.7112194709       33.9977790672  TIP3      3194            0.0000000000
     34497      3394  TIP3      H1             34.1595632568       32.9519047240       33.6137096965  TIP3      3194            0.0000000000
     34498      3394  TIP3      H2             35.1417236045       33.2579350397       34.7000020651  TIP3      3194            0.0000000000
     34499      3395  TIP3      OH2            33.0869023287       29.4256232162       38.7085569123  TIP3      3195            0.0000000000
     34500      3395  TIP3      H1             32.1620791504       29.4757807807       38.9817502095  TIP3      3195            0.0000000000
     34501      3395  TIP3      H2             33.4609235535       30.2616190169       39.0524488501  TIP3      3195            0.0000000000
     34502      3396  TIP3      OH2            34.3506985423       27.7482957548       24.1037626862  TIP3      3196            0.0000000000
     34503      3396  TIP3      H1             35.2120809642       28.1736601262       24.2805189356  TIP3      3196            0.0000000000
     34504      3396  TIP3      H2             34.3833481332       27.0583848639       24.8037893641  TIP3      3196            0.0000000000
     34505      3397  TIP3      OH2            34.7605547332       25.8400214046       25.9520612073  TIP3      3197            0.0000000000
     34506      3397  TIP3      H1             34.0133746160       25.3515439085       26.3621082787  TIP3      3197            0.0000000000
     34507      3397  TIP3      H2             35.3575376887       25.9862904856       26.7120047372  TIP3      3197            0.0000000000
     34508      3398  TIP3      OH2            34.5425371676       28.5445351456       30.9670337318  TIP3      3198            0.0000000000
     34509      3398  TIP3      H1             35.3661189054       28.1743193621       30.5994233233  TIP3      3198            0.0000000000
     34510      3398  TIP3      H2             34.6591282397       29.5015008257       30.7871907819  TIP3      3198            0.0000000000
     34511      3399  TIP3      OH2            33.0628346712       31.4635862230       33.2335272782  TIP3      3199            0.0000000000
     34512      3399  TIP3      H1             32.3725202673       31.8007945772       33.8241688787  TIP3      3199            0.0000000000
     34513      3399  TIP3      H2             32.5188443043       31.0583197381       32.5247735270  TIP3      3199            0.0000000000
     34514      3400  TIP3      OH2            34.9788090673       25.6523034647       22.3842642269  TIP3      3200            0.0000000000
     34515      3400  TIP3      H1             34.5240688803       26.0813578506       21.6543895752  TIP3      3200            0.0000000000
     34516      3400  TIP3      H2             35.0192916731       26.3938537304       23.0272485834  TIP3      3200            0.0000000000
     34517      3401  TIP3      OH2            32.5528916177       24.3237982086       26.5274965965  TIP3      3201            0.0000000000
     34518      3401  TIP3      H1             32.4281172787       23.3647265917       26.5412457959  TIP3      3201            0.0000000000
     34519      3401  TIP3      H2             32.2464159197       24.5544841008       27.4259664446  TIP3      3201            0.0000000000
     34520      3402  TIP3      OH2            17.5777454496       26.4159823479       30.6093024182  TIP3      3202            0.0000000000
     34521      3402  TIP3      H1             17.7549088277       26.3339876704       29.6465930905  TIP3      3202            0.0000000000
     34522      3402  TIP3      H2             18.4707043664       26.2372627958       30.9632659558  TIP3      3202            0.0000000000
     34523      3403  TIP3      OH2            33.3990897772       26.3045439818       36.3117219869  TIP3      3203            0.0000000000
     34524      3403  TIP3      H1             34.0286892087       25.5537815991       36.3729149923  TIP3      3203            0.0000000000
     34525      3403  TIP3      H2             34.0066460195       27.0721924200       36.2379533197  TIP3      3203            0.0000000000
     34526      3404  TIP3      OH2            34.9689383550       24.1754405423       36.8845042132  TIP3      3204            0.0000000000
     34527      3404  TIP3      H1             34.0834280626       23.7820628608       36.7291783016  TIP3      3204            0.0000000000
     34528      3404  TIP3      H2             35.5309836729       23.3810964242       36.8128544838  TIP3      3204            0.0000000000
     34529      3405  TIP3      OH2            32.2342674170       21.9123726757       24.9123722906  TIP3      3205            0.0000000000
     34530      3405  TIP3      H1             32.5235370852       20.9971369236       25.1511924376  TIP3      3205            0.0000000000
     34531      3405  TIP3      H2             33.0841368693       22.3055737542       24.6912961021  TIP3      3205            0.0000000000
     34532      3406  TIP3      OH2            32.8781052337       22.4470037499       30.4567775735  TIP3      3206            0.0000000000
     34533      3406  TIP3      H1             33.8363394816       22.6844258807       30.4359995334  TIP3      3206            0.0000000000
     34534      3406  TIP3      H2             32.6922947774       22.5974611089       31.3952078408  TIP3      3206            0.0000000000
     34535      3407  TIP3      OH2            32.9444490161       23.1721886638       33.2339997692  TIP3      3207            0.0000000000
     34536      3407  TIP3      H1             32.0638282732       23.4622649988       33.5488737854  TIP3      3207            0.0000000000
     34537      3407  TIP3      H2             33.3783841148       24.0306160691       33.0128232611  TIP3      3207            0.0000000000
     34538      3408  TIP3      OH2            17.1983089486       21.7187745676       36.7719026366  TIP3      3208            0.0000000000
     34539      3408  TIP3      H1             18.1350200578       21.5033535115       36.9577784439  TIP3      3208            0.0000000000
     34540      3408  TIP3      H2             16.7383580281       20.8924219168       37.0369782080  TIP3      3208            0.0000000000
     34541      3409  TIP3      OH2            35.2359555026       17.2368632656       38.5747398605  TIP3      3209            0.0000000000
     34542      3409  TIP3      H1             35.5913702816       16.5758164329       37.9523256287  TIP3      3209            0.0000000000
     34543      3409  TIP3      H2             35.3093559006       18.0505369256       38.0370567671  TIP3      3209            0.0000000000
     34544      3410  TIP3      OH2            32.8797230646       19.1841835125       25.0138109336  TIP3      3210            0.0000000000
     34545      3410  TIP3      H1             33.1152324110       18.7796471277       25.8808805920  TIP3      3210            0.0000000000
     34546      3410  TIP3      H2             32.2783477839       18.5188450509       24.6219873586  TIP3      3210            0.0000000000
     34547      3411  TIP3      OH2            18.3953245326       20.0079697306       29.6134294473  TIP3      3211            0.0000000000
     34548      3411  TIP3      H1             18.8560891016       19.1820309203       29.8703826500  TIP3      3211            0.0000000000
     34549      3411  TIP3      H2             18.9462911725       20.7017622043       29.9980319881  TIP3      3211            0.0000000000
     34550      3412  TIP3      OH2            16.6777382361       23.0093956806       30.6498604172  TIP3      3212            0.0000000000
     34551      3412  TIP3      H1             17.2407158037       22.7578491839       29.8893743881  TIP3      3212            0.0000000000
     34552      3412  TIP3      H2             17.1466680889       23.8123562957       30.9186556239  TIP3      3212            0.0000000000
     34553      3413  TIP3      OH2            34.7405769013       19.3331263222       36.9362506194  TIP3      3213            0.0000000000
     34554      3413  TIP3      H1             33.8062957576       19.6174541817       36.8851202130  TIP3      3213            0.0000000000
     34555      3413  TIP3      H2             34.7514482955       18.7928233425       36.1295684017  TIP3      3213            0.0000000000
     34556      3414  TIP3      OH2            34.7536024502       19.2569846575       21.6480053828  TIP3      3214            0.0000000000
     34557      3414  TIP3      H1             35.1221166615       18.5239645308       21.1212912558  TIP3      3214            0.0000000000
     34558      3414  TIP3      H2             35.4281714634       19.9340792845       21.6032367537  TIP3      3214            0.0000000000
     34559      3415  TIP3      OH2            17.0273235319       19.3063025811       24.7376687991  TIP3      3215            0.0000000000
     34560      3415  TIP3      H1             16.0882132493       19.4564199648       24.5822985765  TIP3      3215            0.0000000000
     34561      3415  TIP3      H2             17.4632912456       19.7448780912       23.9846536699  TIP3      3215            0.0000000000
     34562      3416  TIP3      OH2            32.0795015203       34.0097821164       26.9042312374  TIP3      3216            0.0000000000
     34563      3416  TIP3      H1             32.6753119080       33.8618768420       26.1345508344  TIP3      3216            0.0000000000
     34564      3416  TIP3      H2             32.5191954452       34.7224582580       27.4118331241  TIP3      3216            0.0000000000
     34565      3417  TIP3      OH2            16.9906269865       17.9168246145       33.0158315027  TIP3      3217            0.0000000000
     34566      3417  TIP3      H1             16.3235795563       17.7280071640       33.6990233981  TIP3      3217            0.0000000000
     34567      3417  TIP3      H2             16.5340577444       18.5938941443       32.4767244698  TIP3      3217            0.0000000000
     34568      3418  TIP3      OH2            19.2326945791       31.1142264439       37.1798671206  TIP3      3218            0.0000000000
     34569      3418  TIP3      H1             18.3944423063       31.3397657438       36.7428620024  TIP3      3218            0.0000000000
     34570      3418  TIP3      H2             18.9642972412       31.0437252581       38.0985134638  TIP3      3218            0.0000000000
     34571      3419  TIP3      OH2            22.1281887385       32.1370809749       33.4570604678  TIP3      3219            0.0000000000
     34572      3419  TIP3      H1             21.8118258538       33.0138324305       33.1923808094  TIP3      3219            0.0000000000
     34573      3419  TIP3      H2             23.0567700882       32.2112813577       33.1545409441  TIP3      3219            0.0000000000
     34574      3420  TIP3      OH2            26.4552349200       33.5715280664       36.3682064656  TIP3      3220            0.0000000000
     34575      3420  TIP3      H1             26.6028512871       33.1975346403       37.2692729513  TIP3      3220            0.0000000000
     34576      3420  TIP3      H2             27.3563078689       33.8622942339       36.1112999766  TIP3      3220            0.0000000000
     34577      3421  TIP3      OH2            28.7504678580       34.8788345780       35.6625381356  TIP3      3221            0.0000000000
     34578      3421  TIP3      H1             29.4692058886       34.2752901381       35.4279209778  TIP3      3221            0.0000000000
     34579      3421  TIP3      H2             29.1135411145       35.2392713841       36.4977618703  TIP3      3221            0.0000000000
     34580      3422  TIP3      OH2            33.7790847420       17.4321068525       34.7793755540  TIP3      3222            0.0000000000
     34581      3422  TIP3      H1             32.9423875575       17.7316866824       34.3740780157  TIP3      3222            0.0000000000
     34582      3422  TIP3      H2             33.9244804660       16.6042575818       34.2699207892  TIP3      3222            0.0000000000
     34583      3423  TIP3      OH2            19.5344782685       35.3478627862       33.4438979206  TIP3      3223            0.0000000000
     34584      3423  TIP3      H1             18.8152702961       35.8669688021       33.0618288047  TIP3      3223            0.0000000000
     34585      3423  TIP3      H2             19.2364283328       35.1915230018       34.3516380595  TIP3      3223            0.0000000000
     34586      3424  TIP3      OH2            22.0264232904       34.9322031903       32.5287354125  TIP3      3224            0.0000000000
     34587      3424  TIP3      H1             21.1368163337       35.0994023303       32.9192389730  TIP3      3224            0.0000000000
     34588      3424  TIP3      H2             21.9771100243       35.5201597529       31.7532395573  TIP3      3224            0.0000000000
     34589      3425  TIP3      OH2            26.7326031940       34.8628700123       31.7082367214  TIP3      3225            0.0000000000
     34590      3425  TIP3      H1             26.2722057532       35.4027861954       31.0469615690  TIP3      3225            0.0000000000
     34591      3425  TIP3      H2             26.8738779221       35.5136344000       32.4296163087  TIP3      3225            0.0000000000
     34592      3426  TIP3      OH2            29.0184243489       33.6639515794       32.7269286647  TIP3      3226            0.0000000000
     34593      3426  TIP3      H1             28.1672029762       33.9424881996       32.3556684349  TIP3      3226            0.0000000000
     34594      3426  TIP3      H2             29.5062545425       34.5058671993       32.6468317462  TIP3      3226            0.0000000000
     34595      3427  TIP3      OH2            31.6191724699       35.2652029230       32.9545305791  TIP3      3227            0.0000000000
     34596      3427  TIP3      H1             31.5378778895       36.2256338462       32.7296927452  TIP3      3227            0.0000000000
     34597      3427  TIP3      H2             31.7919221870       34.8754994081       32.0739685583  TIP3      3227            0.0000000000
     34598      3428  TIP3      OH2            19.0102225630       34.0233411823       30.4016398953  TIP3      3228            0.0000000000
     34599      3428  TIP3      H1             18.9271536701       33.5557273011       31.2613731850  TIP3      3228            0.0000000000
     34600      3428  TIP3      H2             19.8243215384       33.6384629735       30.0115974797  TIP3      3228            0.0000000000
     34601      3429  TIP3      OH2            21.0925835099       32.7224449714       29.0506491140  TIP3      3229            0.0000000000
     34602      3429  TIP3      H1             20.9265216178       31.7893220199       29.2843244283  TIP3      3229            0.0000000000
     34603      3429  TIP3      H2             21.9497585275       32.8729901695       29.5021986567  TIP3      3229            0.0000000000
     34604      3430  TIP3      OH2            23.6973080375       33.2145789627       29.9299045000  TIP3      3230            0.0000000000
     34605      3430  TIP3      H1             23.8479184866       32.2859715707       29.6703928954  TIP3      3230            0.0000000000
     34606      3430  TIP3      H2             23.7404696658       33.1630026871       30.8968116737  TIP3      3230            0.0000000000
     34607      3431  TIP3      OH2            27.1400848634       18.8564209553       29.0472399031  TIP3      3231            0.0000000000
     34608      3431  TIP3      H1             26.4708733157       18.2161479738       29.3465569160  TIP3      3231            0.0000000000
     34609      3431  TIP3      H2             27.6995659815       18.3153586081       28.4824661445  TIP3      3231            0.0000000000
     34610      3432  TIP3      OH2            32.2780973488       16.8974481770       29.1237043716  TIP3      3232            0.0000000000
     34611      3432  TIP3      H1             32.8917230012       17.4944340170       28.6209221099  TIP3      3232            0.0000000000
     34612      3432  TIP3      H2             31.3957325680       17.2657327975       28.9048709231  TIP3      3232            0.0000000000
     34613      3433  TIP3      OH2            33.9451498925       18.1560787528       27.4254933324  TIP3      3233            0.0000000000
     34614      3433  TIP3      H1             34.6219339523       17.5678450348       27.0132718061  TIP3      3233            0.0000000000
     34615      3433  TIP3      H2             34.4558568333       18.9896128537       27.5358000161  TIP3      3233            0.0000000000
     34616      3434  TIP3      OH2            19.5134841212       17.4796227209       26.9347441670  TIP3      3234            0.0000000000
     34617      3434  TIP3      H1             18.7327771264       17.2960700357       26.3738063180  TIP3      3234            0.0000000000
     34618      3434  TIP3      H2             19.9747563689       16.6231805695       26.8512590600  TIP3      3234            0.0000000000
     34619      3435  TIP3      OH2            18.4163043165       17.2821993303       22.7773121049  TIP3      3235            0.0000000000
     34620      3435  TIP3      H1             18.6864852653       17.8671714189       22.0372487273  TIP3      3235            0.0000000000
     34621      3435  TIP3      H2             17.7058772412       17.8003705379       23.1657391524  TIP3      3235            0.0000000000
     34622      3436  TIP3      OH2            24.0008348056       17.3744037585       26.6935112492  TIP3      3236            0.0000000000
     34623      3436  TIP3      H1             24.8822267348       17.7831375632       26.6295674938  TIP3      3236            0.0000000000
     34624      3436  TIP3      H2             23.9545066389       17.1927501286       27.6324854847  TIP3      3236            0.0000000000
     34625      3437  TIP3      OH2            29.7040157830       17.4278942920       28.3226911217  TIP3      3237            0.0000000000
     34626      3437  TIP3      H1             29.6521721917       17.5414279175       27.3648191928  TIP3      3237            0.0000000000
     34627      3437  TIP3      H2             29.3200343185       16.5252679653       28.4517146506  TIP3      3237            0.0000000000
     34628      3438  TIP3      OH2            30.9587542906       17.4645208783       23.9523792307  TIP3      3238            0.0000000000
     34629      3438  TIP3      H1             30.2015299145       18.0529317979       23.8486118306  TIP3      3238            0.0000000000
     34630      3438  TIP3      H2             30.5265413371       16.6202878881       24.2220214780  TIP3      3238            0.0000000000
     34631      3439  TIP3      OH2            18.2668690025       33.2482753645       23.5569101297  TIP3      3239            0.0000000000
     34632      3439  TIP3      H1             17.4857727097       33.1103080659       23.0195218605  TIP3      3239            0.0000000000
     34633      3439  TIP3      H2             18.1825955048       34.1292504506       23.9342215190  TIP3      3239            0.0000000000
     34634      3440  TIP3      OH2            20.1777273574       19.1370311778       21.2065448155  TIP3      3240            0.0000000000
     34635      3440  TIP3      H1             20.6564615658       18.6003408812       20.5808478593  TIP3      3240            0.0000000000
     34636      3440  TIP3      H2             20.8479067264       19.5261801065       21.7805131128  TIP3      3240            0.0000000000
     34637      3441  TIP3      OH2            25.0792656060       19.3656309477       23.5565369894  TIP3      3241            0.0000000000
     34638      3441  TIP3      H1             25.4245225219       18.8647406547       24.3131937456  TIP3      3241            0.0000000000
     34639      3441  TIP3      H2             25.2177179767       20.2665784797       23.9511460040  TIP3      3241            0.0000000000
     34640      3442  TIP3      OH2            33.6751001076       34.0394987113       24.7091670445  TIP3      3242            0.0000000000
     34641      3442  TIP3      H1             33.6321242728       33.2241102452       24.1474502020  TIP3      3242            0.0000000000
     34642      3442  TIP3      H2             33.7515053231       34.7382540632       24.0130332184  TIP3      3242            0.0000000000
     34643      3443  TIP3      OH2            19.4080868810       18.0230816150       36.3643243285  TIP3      3243            0.0000000000
     34644      3443  TIP3      H1             19.0127258530       17.2304613441       36.7711365261  TIP3      3243            0.0000000000
     34645      3443  TIP3      H2             20.3139009551       17.9850861254       36.7500840996  TIP3      3243            0.0000000000
     34646      3444  TIP3      OH2            21.4033016322       17.4224383075       38.0722647555  TIP3      3244            0.0000000000
     34647      3444  TIP3      H1             22.2541885721       17.0891636913       37.7390185751  TIP3      3244            0.0000000000
     34648      3444  TIP3      H2             20.9965139786       16.5894963068       38.3794099416  TIP3      3244            0.0000000000
     34649      3445  TIP3      OH2            29.7916331786       16.6791900057       38.1700261905  TIP3      3245            0.0000000000
     34650      3445  TIP3      H1             29.9490962051       16.2284045126       39.0197825626  TIP3      3245            0.0000000000
     34651      3445  TIP3      H2             30.7017571206       16.6843336976       37.7973562722  TIP3      3245            0.0000000000
     34652      3446  TIP3      OH2            33.0168200787       32.7488610366       36.7865306982  TIP3      3246            0.0000000000
     34653      3446  TIP3      H1             32.2161557530       32.6154296422       36.2329471406  TIP3      3246            0.0000000000
     34654      3446  TIP3      H2             32.8979496333       33.6981734407       37.0029057760  TIP3      3246            0.0000000000
     34655      3447  TIP3      OH2            38.5643781490       25.6219803020       31.9551124360  TIP3      3247            0.0000000000
     34656      3447  TIP3      H1             38.7528069745       24.8429487694       32.5278626362  TIP3      3247            0.0000000000
     34657      3447  TIP3      H2             39.4307113079       26.0591030350       31.9534530976  TIP3      3247            0.0000000000
     34658      3448  TIP3      OH2           -40.3924337942       29.4556582070       30.6961159099  TIP3      3248            0.0000000000
     34659      3448  TIP3      H1            -40.6073299528       28.9155702787       29.9090757603  TIP3      3248            0.0000000000
     34660      3448  TIP3      H2            -39.5359697076       29.7851808878       30.4104031106  TIP3      3248            0.0000000000
     34661      3449  TIP3      OH2            36.2149216921       23.5158457456       25.7663575454  TIP3      3249            0.0000000000
     34662      3449  TIP3      H1             35.8164260119       24.4150511073       25.7671235809  TIP3      3249            0.0000000000
     34663      3449  TIP3      H2             35.5966617404       23.0139274714       25.2361036026  TIP3      3249            0.0000000000
     34664      3450  TIP3      OH2            36.9477530901       25.7816540115       27.9378827879  TIP3      3250            0.0000000000
     34665      3450  TIP3      H1             37.2210308996       24.9683771149       28.4088254172  TIP3      3250            0.0000000000
     34666      3450  TIP3      H2             37.6685542761       25.8935024484       27.3017831122  TIP3      3250            0.0000000000
     34667      3451  TIP3      OH2            37.5888582586       23.2321312116       28.9822868489  TIP3      3251            0.0000000000
     34668      3451  TIP3      H1             38.2840870113       22.7474568020       29.4676221041  TIP3      3251            0.0000000000
     34669      3451  TIP3      H2             37.7394011566       22.9117600691       28.0846684167  TIP3      3251            0.0000000000
     34670      3452  TIP3      OH2            39.3690663423       21.1355657433       30.2807097984  TIP3      3252            0.0000000000
     34671      3452  TIP3      H1             39.7649161183       21.9083024387       30.7475254368  TIP3      3252            0.0000000000
     34672      3452  TIP3      H2             39.9495529064       21.0106369708       29.5146484803  TIP3      3252            0.0000000000
     34673      3453  TIP3      OH2            36.9005127470       29.0053758677       24.1307771925  TIP3      3253            0.0000000000
     34674      3453  TIP3      H1             36.7053795823       29.3672049367       23.2626163560  TIP3      3253            0.0000000000
     34675      3453  TIP3      H2             37.0259628968       29.8226613725       24.6656501747  TIP3      3253            0.0000000000
     34676      3454  TIP3      OH2            38.9682413639       26.0351837782       34.7583505161  TIP3      3254            0.0000000000
     34677      3454  TIP3      H1             39.2154354220       26.7762997070       35.3462232461  TIP3      3254            0.0000000000
     34678      3454  TIP3      H2             38.1316214694       26.3130033082       34.3619218183  TIP3      3254            0.0000000000
     34679      3455  TIP3      OH2            36.1701771433       28.1876204094       33.6535656528  TIP3      3255            0.0000000000
     34680      3455  TIP3      H1             35.7957413388       28.0985170268       32.7604979682  TIP3      3255            0.0000000000
     34681      3455  TIP3      H2             36.3219653433       27.2401706682       33.8446318723  TIP3      3255            0.0000000000
     34682      3456  TIP3      OH2            36.0342015618       30.9195073794       30.4102661986  TIP3      3256            0.0000000000
     34683      3456  TIP3      H1             36.9916313044       30.7834111527       30.4174516061  TIP3      3256            0.0000000000
     34684      3456  TIP3      H2             35.9237533242       31.7384688378       30.9130590019  TIP3      3256            0.0000000000
     34685      3457  TIP3      OH2            39.0328921513       33.3051028020       26.4439486827  TIP3      3257            0.0000000000
     34686      3457  TIP3      H1             39.3103154496       33.3204367643       27.3799765252  TIP3      3257            0.0000000000
     34687      3457  TIP3      H2             38.0856859279       33.2483846491       26.4363981766  TIP3      3257            0.0000000000
     34688      3458  TIP3      OH2            38.4850684408       29.5262610633       34.6053243437  TIP3      3258            0.0000000000
     34689      3458  TIP3      H1             38.7744180240       29.1042020860       35.4385486828  TIP3      3258            0.0000000000
     34690      3458  TIP3      H2             37.6638593472       29.0772885028       34.3450830757  TIP3      3258            0.0000000000
     34691      3459  TIP3      OH2            38.9271153114       23.2188314720       33.5054363252  TIP3      3259            0.0000000000
     34692      3459  TIP3      H1             38.9656370486       23.5566847713       34.4060982689  TIP3      3259            0.0000000000
     34693      3459  TIP3      H2             38.5212919759       22.3472553664       33.6279127043  TIP3      3259            0.0000000000
     34694      3460  TIP3      OH2            35.5739575921       20.3078934932       27.4352869139  TIP3      3260            0.0000000000
     34695      3460  TIP3      H1             36.2598505103       20.2559299836       28.1456433317  TIP3      3260            0.0000000000
     34696      3460  TIP3      H2             36.0320251756       19.9255196354       26.6710005037  TIP3      3260            0.0000000000
     34697      3461  TIP3      OH2            38.5717664469       22.2988219543       26.3351924931  TIP3      3261            0.0000000000
     34698      3461  TIP3      H1             37.6210534131       22.2900871960       26.1519109533  TIP3      3261            0.0000000000
     34699      3461  TIP3      H2             38.8807733609       21.3714096536       26.3530097265  TIP3      3261            0.0000000000
     34700      3462  TIP3      OH2            39.0066657689       28.0379004468       36.7537965575  TIP3      3262            0.0000000000
     34701      3462  TIP3      H1             39.6245486355       28.1959556935       37.4492367799  TIP3      3262            0.0000000000
     34702      3462  TIP3      H2             38.2004310282       28.0940478531       37.3100969711  TIP3      3262            0.0000000000
     34703      3463  TIP3      OH2            39.2064754076       27.2983229629       29.1642984672  TIP3      3263            0.0000000000
     34704      3463  TIP3      H1             40.0658531006       27.3086239447       28.7122307625  TIP3      3263            0.0000000000
     34705      3463  TIP3      H2             39.3736179121       26.6109856591       29.8532399846  TIP3      3263            0.0000000000
     34706      3464  TIP3      OH2            36.3594837259       25.7678216906       34.7677634712  TIP3      3264            0.0000000000
     34707      3464  TIP3      H1             36.6607440565       25.2738317852       35.5565501363  TIP3      3264            0.0000000000
     34708      3464  TIP3      H2             35.8314523601       25.1057269996       34.2840899852  TIP3      3264            0.0000000000
     34709      3465  TIP3      OH2            37.6153510045       25.5741745532       21.4343618708  TIP3      3265            0.0000000000
     34710      3465  TIP3      H1             38.1708589707       26.2867369056       21.7963354812  TIP3      3265            0.0000000000
     34711      3465  TIP3      H2             36.7218377696       25.8870548568       21.6417849161  TIP3      3265            0.0000000000
     34712      3466  TIP3      OH2            38.0692031755       20.4403175864       34.2835026317  TIP3      3266            0.0000000000
     34713      3466  TIP3      H1             37.1622162472       20.7871547452       34.2038497323  TIP3      3266            0.0000000000
     34714      3466  TIP3      H2             37.9499158150       19.5875356543       34.7267909972  TIP3      3266            0.0000000000
     34715      3467  TIP3      OH2            37.7033729108       32.2327294433       32.7058362376  TIP3      3267            0.0000000000
     34716      3467  TIP3      H1             37.9442603854       31.2927374210       32.7239335385  TIP3      3267            0.0000000000
     34717      3467  TIP3      H2             37.9800560968       32.5231131022       33.5884434872  TIP3      3267            0.0000000000
     34718      3468  TIP3      OH2            38.9734394642       27.5182231624       22.8745263513  TIP3      3268            0.0000000000
     34719      3468  TIP3      H1             38.3158998222       27.8846861702       23.4914104082  TIP3      3268            0.0000000000
     34720      3468  TIP3      H2             39.4254977358       28.3325228907       22.6479721324  TIP3      3268            0.0000000000
     34721      3469  TIP3      OH2            39.2419456870       30.2168789907       21.9496854810  TIP3      3269            0.0000000000
     34722      3469  TIP3      H1             39.9604072965       30.8550363351       22.0701109333  TIP3      3269            0.0000000000
     34723      3469  TIP3      H2             39.7227996280       29.8133030163       21.2000440835  TIP3      3269            0.0000000000
     34724      3470  TIP3      OH2            38.6543882439       17.6416704741       29.6816385579  TIP3      3270            0.0000000000
     34725      3470  TIP3      H1             38.4778904091       17.6798538955       28.7137764523  TIP3      3270            0.0000000000
     34726      3470  TIP3      H2             38.2857291566       16.7822381075       29.9437438390  TIP3      3270            0.0000000000
     34727      3471  TIP3      OH2            37.4865047193       31.4058044760       25.6530253970  TIP3      3271            0.0000000000
     34728      3471  TIP3      H1             36.7410554575       32.0168960058       25.7181332255  TIP3      3271            0.0000000000
     34729      3471  TIP3      H2             38.1249648377       31.9357980067       25.1218339770  TIP3      3271            0.0000000000
     34730      3472  TIP3      OH2            36.8596066017       34.1803931498       37.0833843806  TIP3      3272            0.0000000000
     34731      3472  TIP3      H1             37.4701695528       33.9746726002       37.8225672526  TIP3      3272            0.0000000000
     34732      3472  TIP3      H2             36.4340112969       33.3173208745       36.9052470992  TIP3      3272            0.0000000000
     34733      3473  TIP3      OH2            36.7717454137       27.9475859562       38.0783145670  TIP3      3273            0.0000000000
     34734      3473  TIP3      H1             36.9557362636       27.0449651659       37.7605464178  TIP3      3273            0.0000000000
     34735      3473  TIP3      H2             36.0266020205       28.2171858819       37.5101389544  TIP3      3273            0.0000000000
     34736      3474  TIP3      OH2            37.6993014959       25.2014845519       37.4948612450  TIP3      3274            0.0000000000
     34737      3474  TIP3      H1             38.0115081634       24.3035249404       37.3356035968  TIP3      3274            0.0000000000
     34738      3474  TIP3      H2             37.4222630327       25.1655330617       38.4232670399  TIP3      3274            0.0000000000
     34739      3475  TIP3      OH2            38.4052574066       20.6156524991       37.5927242566  TIP3      3275            0.0000000000
     34740      3475  TIP3      H1             38.6588928539       19.9057931633       36.9708382028  TIP3      3275            0.0000000000
     34741      3475  TIP3      H2             38.4484065732       20.1806191238       38.4649866656  TIP3      3275            0.0000000000
     34742      3476  TIP3      OH2            35.5177346701       35.2328718701       26.2685098056  TIP3      3276            0.0000000000
     34743      3476  TIP3      H1             34.8395955638       34.7289974909       25.7777647745  TIP3      3276            0.0000000000
     34744      3476  TIP3      H2             35.8412932970       34.5659121962       26.9113088947  TIP3      3276            0.0000000000
     34745      3477  TIP3      OH2            36.3889852108       33.3244635684       28.1012053370  TIP3      3277            0.0000000000
     34746      3477  TIP3      H1             36.0271088047       32.4501268485       28.3114508032  TIP3      3277            0.0000000000
     34747      3477  TIP3      H2             36.6077357340       33.6637305245       28.9908748802  TIP3      3277            0.0000000000
     34748      3478  TIP3      OH2            36.4423852878       26.3942167943       30.5948682877  TIP3      3278            0.0000000000
     34749      3478  TIP3      H1             36.6370199726       26.3160046690       29.6384979157  TIP3      3278            0.0000000000
     34750      3478  TIP3      H2             37.3406881922       26.2148557598       30.9691930665  TIP3      3278            0.0000000000
     34751      3479  TIP3      OH2            36.0031928392       21.7284960165       36.7683752588  TIP3      3279            0.0000000000
     34752      3479  TIP3      H1             36.9374493042       21.5175313185       36.9588008378  TIP3      3279            0.0000000000
     34753      3479  TIP3      H2             35.5770907190       20.8891583222       37.0283669669  TIP3      3279            0.0000000000
     34754      3480  TIP3      OH2            37.1597531713       20.0083277656       29.6098887951  TIP3      3280            0.0000000000
     34755      3480  TIP3      H1             37.6969441951       19.2101150554       29.8011388664  TIP3      3280            0.0000000000
     34756      3480  TIP3      H2             37.7914314796       20.6558114150       29.9793693197  TIP3      3280            0.0000000000
     34757      3481  TIP3      OH2            35.5343555873       23.0092717828       30.6273665556  TIP3      3281            0.0000000000
     34758      3481  TIP3      H1             36.1410112026       22.7649778893       29.8927835293  TIP3      3281            0.0000000000
     34759      3481  TIP3      H2             35.9870914905       23.8115802221       30.9231404198  TIP3      3281            0.0000000000
     34760      3482  TIP3      OH2            35.9165266719       19.2641823578       24.6703016286  TIP3      3282            0.0000000000
     34761      3482  TIP3      H1             34.9597615998       19.4504455373       24.6260224726  TIP3      3282            0.0000000000
     34762      3482  TIP3      H2             36.3015487367       19.7745343268       23.9858892329  TIP3      3282            0.0000000000
     34763      3483  TIP3      OH2            35.8477657720       17.9049697703       33.0201447986  TIP3      3283            0.0000000000
     34764      3483  TIP3      H1             35.1732008203       17.7299453737       33.7026022988  TIP3      3283            0.0000000000
     34765      3483  TIP3      H2             35.4152057372       18.5902092831       32.4706269556  TIP3      3283            0.0000000000
     34766      3484  TIP3      OH2            38.0943622340       31.0861082932       37.2240176101  TIP3      3284            0.0000000000
     34767      3484  TIP3      H1             37.2926020462       31.2968947083       36.7106542339  TIP3      3284            0.0000000000
     34768      3484  TIP3      H2             37.7403991064       31.0618567088       38.1120390953  TIP3      3284            0.0000000000
     34769      3485  TIP3      OH2            38.3123164138       35.3294575042       33.4582011373  TIP3      3285            0.0000000000
     34770      3485  TIP3      H1             37.5813325219       35.8355324170       33.0738822665  TIP3      3285            0.0000000000
     34771      3485  TIP3      H2             38.0203884915       35.1491017712       34.3606684876  TIP3      3285            0.0000000000
     34772      3486  TIP3      OH2            37.8070028132       33.9731344590       30.3963504127  TIP3      3286            0.0000000000
     34773      3486  TIP3      H1             37.7714292470       33.5717111437       31.2961584603  TIP3      3286            0.0000000000
     34774      3486  TIP3      H2             38.6726053580       33.6987478308       30.0652745589  TIP3      3286            0.0000000000
     34775      3487  TIP3      OH2            38.0470667619       17.5243089504       27.0792322648  TIP3      3287            0.0000000000
     34776      3487  TIP3      H1             37.4407834590       17.3001309760       26.3587826315  TIP3      3287            0.0000000000
     34777      3487  TIP3      H2             38.7926325649       16.9226858389       26.9119234222  TIP3      3287            0.0000000000
     34778      3488  TIP3      OH2            37.1131346028       17.2602619106       22.5820325918  TIP3      3288            0.0000000000
     34779      3488  TIP3      H1             37.6374000191       17.9121991407       22.1242820919  TIP3      3288            0.0000000000
     34780      3488  TIP3      H2             36.5494359202       17.7530657032       23.2133486291  TIP3      3288            0.0000000000
     34781      3489  TIP3      OH2            37.0283683468       33.1914521617       23.6256710241  TIP3      3289            0.0000000000
     34782      3489  TIP3      H1             36.3746433126       33.1878141087       22.9005312117  TIP3      3289            0.0000000000
     34783      3489  TIP3      H2             37.0663547901       34.1356069479       23.7991333178  TIP3      3289            0.0000000000
     34784      3490  TIP3      OH2            38.3236895981       18.0282387778       36.4459100888  TIP3      3290            0.0000000000
     34785      3490  TIP3      H1             37.9094426458       17.2142626899       36.7961269583  TIP3      3290            0.0000000000
     34786      3490  TIP3      H2             39.2571757598       17.9383360301       36.6780707104  TIP3      3290            0.0000000000
     34787      3491  TIP3      OH2           -22.1341415852       38.8474956084       31.5128361287  TIP3      3291            0.0000000000
     34788      3491  TIP3      H1            -21.9219419743       39.4541770736       32.2264687269  TIP3      3291            0.0000000000
     34789      3491  TIP3      H2            -21.6034484302       39.2122332301       30.7939102026  TIP3      3291            0.0000000000
     34790      3492  TIP3      OH2           -34.3928344233       39.6131395186       28.2566216484  TIP3      3292            0.0000000000
     34791      3492  TIP3      H1            -34.3661390068       40.4905093639       27.8467409171  TIP3      3292            0.0000000000
     34792      3492  TIP3      H2            -34.8387256137       39.0885663753       27.5684523298  TIP3      3292            0.0000000000
     34793      3493  TIP3      OH2           -26.5515901296      -40.1823082884       26.3337842208  TIP3      3293            0.0000000000
     34794      3493  TIP3      H1            -26.0546617336      -40.3991901507       27.1659654663  TIP3      3293            0.0000000000
     34795      3493  TIP3      H2            -26.0716193560      -39.4078831739       26.0235504975  TIP3      3293            0.0000000000
     34796      3494  TIP3      OH2           -35.5551104570       38.5833883720       32.2827596785  TIP3      3294            0.0000000000
     34797      3494  TIP3      H1            -35.8327548484       39.1580262809       31.5653417350  TIP3      3294            0.0000000000
     34798      3494  TIP3      H2            -36.2017105927       38.8288032056       32.9904906440  TIP3      3294            0.0000000000
     34799      3495  TIP3      OH2           -24.9902289575       38.6890425603       28.4483785999  TIP3      3295            0.0000000000
     34800      3495  TIP3      H1            -25.2691055201       38.1613037727       29.2077876873  TIP3      3295            0.0000000000
     34801      3495  TIP3      H2            -24.3483617857       39.2528795580       28.9206840292  TIP3      3295            0.0000000000
     34802      3496  TIP3      OH2           -24.5549052649       37.8363270577       32.3618633974  TIP3      3296            0.0000000000
     34803      3496  TIP3      H1            -25.3253187261       38.4033964195       32.2229796199  TIP3      3296            0.0000000000
     34804      3496  TIP3      H2            -23.8756946145       38.2375476526       31.7838769428  TIP3      3296            0.0000000000
     34805      3497  TIP3      OH2           -31.5846813966       35.9228575725       29.7940242815  TIP3      3297            0.0000000000
     34806      3497  TIP3      H1            -31.7473007830       34.9653446309       29.7001161069  TIP3      3297            0.0000000000
     34807      3497  TIP3      H2            -32.4665670951       36.2446094178       30.0757747374  TIP3      3297            0.0000000000
     34808      3498  TIP3      OH2           -23.2615404922       35.8461836093       22.7849616417  TIP3      3298            0.0000000000
     34809      3498  TIP3      H1            -24.2019213795       36.0028369798       23.0184174416  TIP3      3298            0.0000000000
     34810      3498  TIP3      H2            -23.0510789768       36.7063092403       22.3777098604  TIP3      3298            0.0000000000
     34811      3499  TIP3      OH2           -34.2261831707       36.7992318918       30.5007870854  TIP3      3299            0.0000000000
     34812      3499  TIP3      H1            -35.1467440800       36.6802079948       30.1595951098  TIP3      3299            0.0000000000
     34813      3499  TIP3      H2            -34.3480348258       37.6384891784       30.9769595526  TIP3      3299            0.0000000000
     34814      3500  TIP3      OH2           -29.5987196373       36.5014743773       33.9155774250  TIP3      3300            0.0000000000
     34815      3500  TIP3      H1            -29.1901379249       36.0656948525       34.6860726049  TIP3      3300            0.0000000000
     34816      3500  TIP3      H2            -30.5690665312       36.3586465969       34.0377798820  TIP3      3300            0.0000000000
     34817      3501  TIP3      OH2           -33.5395199985       38.7401589877       20.1077969124  TIP3      3301            0.0000000000
     34818      3501  TIP3      H1            -33.7294525455       38.8145324397       21.0660879483  TIP3      3301            0.0000000000
     34819      3501  TIP3      H2            -33.8997263870       39.5775183729       19.7749581657  TIP3      3301            0.0000000000
     34820      3502  TIP3      OH2           -39.7827584837       39.1164406637       27.4260655475  TIP3      3302            0.0000000000
     34821      3502  TIP3      H1            -39.1319450584       39.1020176689       28.1605227586  TIP3      3302            0.0000000000
     34822      3502  TIP3      H2            -39.3356655316       38.7003970879       26.6705948916  TIP3      3302            0.0000000000
     34823      3503  TIP3      OH2           -31.5267705791       38.9549837533       27.7253914920  TIP3      3303            0.0000000000
     34824      3503  TIP3      H1            -32.4384534583       39.2512799530       27.9138679393  TIP3      3303            0.0000000000
     34825      3503  TIP3      H2            -31.0354258495       39.3706810462       28.4645749992  TIP3      3303            0.0000000000
     34826      3504  TIP3      OH2           -27.1549150771       38.6438475994       30.8914568668  TIP3      3304            0.0000000000
     34827      3504  TIP3      H1            -27.8485267693       38.7766345151       31.5849161172  TIP3      3304            0.0000000000
     34828      3504  TIP3      H2            -27.7006453350       38.5008872909       30.1096989014  TIP3      3304            0.0000000000
     34829      3505  TIP3      OH2           -35.3219671770       38.3678543635       25.9678829780  TIP3      3305            0.0000000000
     34830      3505  TIP3      H1            -35.6378020246       37.4429459277       25.9443609083  TIP3      3305            0.0000000000
     34831      3505  TIP3      H2            -34.5270290552       38.3126782985       25.4296070807  TIP3      3305            0.0000000000
     34832      3506  TIP3      OH2           -37.3519503907       39.3329841883       34.2374167407  TIP3      3306            0.0000000000
     34833      3506  TIP3      H1            -38.2566636292       39.6867309801       34.1978688958  TIP3      3306            0.0000000000
     34834      3506  TIP3      H2            -37.4617955797       38.4777125249       34.6754500902  TIP3      3306            0.0000000000
     34835      3507  TIP3      OH2           -28.5411354405       38.8926808750       33.1027409093  TIP3      3307            0.0000000000
     34836      3507  TIP3      H1            -27.9693944412       39.1349172132       33.8361654297  TIP3      3307            0.0000000000
     34837      3507  TIP3      H2            -28.9997349916       38.1096809038       33.4465797223  TIP3      3307            0.0000000000
     34838      3508  TIP3      OH2           -27.8620944252       38.6735990575       24.2490369182  TIP3      3308            0.0000000000
     34839      3508  TIP3      H1            -27.6095312277       39.1977173157       23.4877264948  TIP3      3308            0.0000000000
     34840      3508  TIP3      H2            -27.3548267230       39.0885827791       24.9833030705  TIP3      3308            0.0000000000
     34841      3509  TIP3      OH2           -29.7811624558       37.4970441021       25.9949918349  TIP3      3309            0.0000000000
     34842      3509  TIP3      H1            -30.1161343737       38.1302751877       26.6739109177  TIP3      3309            0.0000000000
     34843      3509  TIP3      H2            -29.0880577886       38.0385833217       25.5687357490  TIP3      3309            0.0000000000
     34844      3510  TIP3      OH2           -34.0070350065       38.6357565764       22.7408296160  TIP3      3310            0.0000000000
     34845      3510  TIP3      H1            -34.2071599437       39.4596651782       23.1882971391  TIP3      3310            0.0000000000
     34846      3510  TIP3      H2            -33.1623792087       38.3045221343       23.0804202504  TIP3      3310            0.0000000000
     34847      3511  TIP3      OH2           -24.2408902174       38.9283404676       35.1123911554  TIP3      3311            0.0000000000
     34848      3511  TIP3      H1            -24.9436923022       39.5851655496       35.0790136455  TIP3      3311            0.0000000000
     34849      3511  TIP3      H2            -23.7058457673       39.1865614748       34.3580172805  TIP3      3311            0.0000000000
     34850      3512  TIP3      OH2           -36.7102349274       36.4779949113       29.6486588918  TIP3      3312            0.0000000000
     34851      3512  TIP3      H1            -36.9127218738       36.4747907859       28.6875032029  TIP3      3312            0.0000000000
     34852      3512  TIP3      H2            -37.1651153681       35.6434387549       29.9008146486  TIP3      3312            0.0000000000
     34853      3513  TIP3      OH2           -33.0873183516       38.4687626915       33.1980019340  TIP3      3313            0.0000000000
     34854      3513  TIP3      H1            -32.5390191162       39.1075207467       32.7057827518  TIP3      3313            0.0000000000
     34855      3513  TIP3      H2            -34.0200618390       38.6297640739       32.9290572952  TIP3      3313            0.0000000000
     34856      3514  TIP3      OH2           -32.2564537868       36.1514421427       33.8545782888  TIP3      3314            0.0000000000
     34857      3514  TIP3      H1            -32.4304694279       37.1124550137       33.7057804981  TIP3      3314            0.0000000000
     34858      3514  TIP3      H2            -32.9957553575       35.7996221420       33.3297539545  TIP3      3314            0.0000000000
     34859      3515  TIP3      OH2           -28.3654215716       39.4647367333       36.2671100963  TIP3      3315            0.0000000000
     34860      3515  TIP3      H1            -29.2136190884       39.7312969514       36.6209202894  TIP3      3315            0.0000000000
     34861      3515  TIP3      H2            -27.9766371590       39.1299587840       37.0888376090  TIP3      3315            0.0000000000
     34862      3516  TIP3      OH2           -26.5156386231       37.9612562825       38.6581253936  TIP3      3316            0.0000000000
     34863      3516  TIP3      H1            -26.8192298586       37.0455030559       38.5121764641  TIP3      3316            0.0000000000
     34864      3516  TIP3      H2            -27.0035171296       38.3154347091       39.4162012588  TIP3      3316            0.0000000000
     34865      3517  TIP3      OH2           -37.0636180274       39.3130669505       37.6639141628  TIP3      3317            0.0000000000
     34866      3517  TIP3      H1            -36.7050228831       38.7001948320       36.9868793199  TIP3      3317            0.0000000000
     34867      3517  TIP3      H2            -36.9898205688       38.8592886847       38.5230495766  TIP3      3317            0.0000000000
     34868      3518  TIP3      OH2           -32.0149455170       35.6282658607       36.5075856666  TIP3      3318            0.0000000000
     34869      3518  TIP3      H1            -31.3719961776       34.8870379224       36.5078636016  TIP3      3318            0.0000000000
     34870      3518  TIP3      H2            -32.1552572880       35.7088017114       35.5413568082  TIP3      3318            0.0000000000
     34871      3519  TIP3      OH2           -31.6392983855       37.1460856971       38.6401360963  TIP3      3319            0.0000000000
     34872      3519  TIP3      H1            -31.8486088304       36.6679379201       37.7991723100  TIP3      3319            0.0000000000
     34873      3519  TIP3      H2            -32.2412986810       37.9201475582       38.5552822916  TIP3      3319            0.0000000000
     34874      3520  TIP3      OH2           -23.8619346458       39.1408258527       19.9955659111  TIP3      3320            0.0000000000
     34875      3520  TIP3      H1            -23.3280297404       38.8309011391       20.7333092917  TIP3      3320            0.0000000000
     34876      3520  TIP3      H2            -24.7720722972       38.8750091960       20.1904954951  TIP3      3320            0.0000000000
     34877      3521  TIP3      OH2           -21.3740913554       36.0615211661       38.5287028460  TIP3      3321            0.0000000000
     34878      3521  TIP3      H1            -21.0008864112       35.4122500612       37.9110531215  TIP3      3321            0.0000000000
     34879      3521  TIP3      H2            -21.2549953293       36.8965016026       38.0381943344  TIP3      3321            0.0000000000
     34880      3522  TIP3      OH2           -23.6802894421       38.0078915992       25.0746839489  TIP3      3322            0.0000000000
     34881      3522  TIP3      H1            -23.4387762980       37.5693103536       25.9112270339  TIP3      3322            0.0000000000
     34882      3522  TIP3      H2            -24.2891253858       37.3897494008       24.6315976233  TIP3      3322            0.0000000000
     34883      3523  TIP3      OH2           -38.1640597479       38.7829815813       29.5155371780  TIP3      3323            0.0000000000
     34884      3523  TIP3      H1            -37.7507592373       37.9745610452       29.8822226193  TIP3      3323            0.0000000000
     34885      3523  TIP3      H2            -37.9916290177       39.4540318141       30.1744942776  TIP3      3323            0.0000000000
     34886      3524  TIP3      OH2           -21.8175679764       38.2482589463       36.8714864512  TIP3      3324            0.0000000000
     34887      3524  TIP3      H1            -22.7616891619       38.4890430928       36.8792896666  TIP3      3324            0.0000000000
     34888      3524  TIP3      H2            -21.7978988254       37.6232962138       36.1320339166  TIP3      3324            0.0000000000
     34889      3525  TIP3      OH2           -21.8192829359       37.9909839072       21.6149435924  TIP3      3325            0.0000000000
     34890      3525  TIP3      H1            -21.4099153807       37.3788421716       21.0140877826  TIP3      3325            0.0000000000
     34891      3525  TIP3      H2            -21.1968864095       38.7323849204       21.6273583220  TIP3      3325            0.0000000000
     34892      3526  TIP3      OH2           -39.4858195317       38.1848244392       24.6666009390  TIP3      3326            0.0000000000
     34893      3526  TIP3      H1            -40.4298420389       38.3450192163       24.5516382101  TIP3      3326            0.0000000000
     34894      3526  TIP3      H2            -39.0523679292       38.7185403390       23.9903720148  TIP3      3326            0.0000000000
     34895      3527  TIP3      OH2            40.3192043266       36.9466506685       33.0376378346  TIP3      3327            0.0000000000
     34896      3527  TIP3      H1             39.6004301209       36.5558012712       33.5662250935  TIP3      3327            0.0000000000
     34897      3527  TIP3      H2             39.7685128155       37.4618168756       32.4419512691  TIP3      3327            0.0000000000
     34898      3528  TIP3      OH2           -22.8302218375       36.2968486280       34.7714945362  TIP3      3328            0.0000000000
     34899      3528  TIP3      H1            -23.6648893808       36.5670770858       34.3459968200  TIP3      3328            0.0000000000
     34900      3528  TIP3      H2            -22.6536660748       35.4647824998       34.2747664501  TIP3      3328            0.0000000000
     34901      3529  TIP3      OH2           -29.3736605594       37.6999059410       29.0946659358  TIP3      3329            0.0000000000
     34902      3529  TIP3      H1            -30.0977945496       37.0913836637       29.3175395474  TIP3      3329            0.0000000000
     34903      3529  TIP3      H2            -28.8675296586       37.1525863288       28.4792271247  TIP3      3329            0.0000000000
     34904      3530  TIP3      OH2           -24.2920427455       35.7921446372       29.1618304684  TIP3      3330            0.0000000000
     34905      3530  TIP3      H1            -23.6722336680       36.3558211913       28.6294437631  TIP3      3330            0.0000000000
     34906      3530  TIP3      H2            -25.1649256058       36.1412683621       28.8869083881  TIP3      3330            0.0000000000
     34907      3531  TIP3      OH2           -22.6101948617       36.9714755780       27.4439532493  TIP3      3331            0.0000000000
     34908      3531  TIP3      H1            -21.9266393741       36.4433369272       26.9766348997  TIP3      3331            0.0000000000
     34909      3531  TIP3      H2            -22.1296786108       37.8274581006       27.5207626359  TIP3      3331            0.0000000000
     34910      3532  TIP3      OH2           -37.0305954973       36.3347463422       26.9234167626  TIP3      3332            0.0000000000
     34911      3532  TIP3      H1            -37.8272556479       36.1691346322       26.3889743572  TIP3      3332            0.0000000000
     34912      3532  TIP3      H2            -36.5816173931       35.4690991297       26.8358724376  TIP3      3332            0.0000000000
     34913      3533  TIP3      OH2           -38.3720737408       36.1255558578       22.6144155154  TIP3      3333            0.0000000000
     34914      3533  TIP3      H1            -37.7634278640       36.7044700556       22.1110358690  TIP3      3333            0.0000000000
     34915      3533  TIP3      H2            -38.8184002790       36.7070816700       23.2434597502  TIP3      3333            0.0000000000
     34916      3534  TIP3      OH2           -32.5676892332       36.2453519085       26.6775295979  TIP3      3334            0.0000000000
     34917      3534  TIP3      H1            -31.6758553882       36.6341849874       26.6287491550  TIP3      3334            0.0000000000
     34918      3534  TIP3      H2            -32.6264997254       36.0563712135       27.6156520235  TIP3      3334            0.0000000000
     34919      3535  TIP3      OH2           -26.9158184440       36.3145782853       28.3172772674  TIP3      3335            0.0000000000
     34920      3535  TIP3      H1            -26.9019635965       36.3842587429       27.3562259566  TIP3      3335            0.0000000000
     34921      3535  TIP3      H2            -27.2827964866       35.4106744248       28.4639600850  TIP3      3335            0.0000000000
     34922      3536  TIP3      OH2           -25.6096025263       36.3639892197       24.0416756670  TIP3      3336            0.0000000000
     34923      3536  TIP3      H1            -26.3639908194       36.9228547410       23.8489012095  TIP3      3336            0.0000000000
     34924      3536  TIP3      H2            -26.0208245725       35.4875027023       24.2112322486  TIP3      3336            0.0000000000
     34925      3537  TIP3      OH2           -31.3819259566       38.3788238186       23.5570751720  TIP3      3337            0.0000000000
     34926      3537  TIP3      H1            -31.1900249196       37.7165541061       24.2502024020  TIP3      3337            0.0000000000
     34927      3537  TIP3      H2            -31.3931609199       39.1799404933       24.0954617798  TIP3      3337            0.0000000000
     34928      3538  TIP3      OH2           -37.1891240885       36.8876846977       36.3952016683  TIP3      3338            0.0000000000
     34929      3538  TIP3      H1            -37.5779968433       36.0806822046       36.7724718454  TIP3      3338            0.0000000000
     34930      3538  TIP3      H2            -36.2671943548       36.8226687260       36.7332094924  TIP3      3338            0.0000000000
     34931      3539  TIP3      OH2           -35.1599576321       36.2604696844       38.0112206860  TIP3      3339            0.0000000000
     34932      3539  TIP3      H1            -34.2875556824       35.8912388487       37.7741147130  TIP3      3339            0.0000000000
     34933      3539  TIP3      H2            -35.5501599229       35.4615957852       38.4091946880  TIP3      3339            0.0000000000
     34934      3540  TIP3      OH2           -26.7690518105       35.4570436191       38.1377521262  TIP3      3340            0.0000000000
     34935      3540  TIP3      H1            -26.6552915555       35.0647456917       39.0230498762  TIP3      3340            0.0000000000
     34936      3540  TIP3      H2            -25.8403553792       35.5189143616       37.8249727687  TIP3      3340            0.0000000000
     34937      3541  TIP3      OH2            -3.1826927667       38.9117668404       31.5287598856  TIP3      3341            0.0000000000
     34938      3541  TIP3      H1             -3.0660377830       39.5193545243       32.2450756173  TIP3      3341            0.0000000000
     34939      3541  TIP3      H2             -2.7187404858       39.2684092840       30.7784101298  TIP3      3341            0.0000000000
     34940      3542  TIP3      OH2           -15.5250750293       39.6180136012       28.2507391428  TIP3      3342            0.0000000000
     34941      3542  TIP3      H1            -15.5124591493       40.4941980058       27.8416967224  TIP3      3342            0.0000000000
     34942      3542  TIP3      H2            -15.9878687789       39.0871257863       27.5752982165  TIP3      3342            0.0000000000
     34943      3543  TIP3      OH2            -7.4187967950      -40.2385199081       26.3985940347  TIP3      3343            0.0000000000
     34944      3543  TIP3      H1             -6.9576978877      -40.4432420622       27.2733261788  TIP3      3343            0.0000000000
     34945      3543  TIP3      H2             -6.9208080843      -39.4573040528       26.0970296328  TIP3      3343            0.0000000000
     34946      3544  TIP3      OH2           -16.7114845867       38.5656057121       32.2775836009  TIP3      3344            0.0000000000
     34947      3544  TIP3      H1            -16.9607996442       39.1642882328       31.5725727785  TIP3      3344            0.0000000000
     34948      3544  TIP3      H2            -17.3431894983       38.8359589696       32.9973582636  TIP3      3344            0.0000000000
     34949      3545  TIP3      OH2            -6.1498703143       38.7116298674       28.5301975596  TIP3      3345            0.0000000000
     34950      3545  TIP3      H1             -6.3652573122       38.1183233569       29.2640210370  TIP3      3345            0.0000000000
     34951      3545  TIP3      H2             -5.4499062481       39.2112938067       28.9869005684  TIP3      3345            0.0000000000
     34952      3546  TIP3      OH2            -5.7760360686       38.5722147724       32.6644315918  TIP3      3346            0.0000000000
     34953      3546  TIP3      H1             -6.5855308980       38.4481715067       32.1518680374  TIP3      3346            0.0000000000
     34954      3546  TIP3      H2             -5.1440258826       38.1601868638       32.0141312614  TIP3      3346            0.0000000000
     34955      3547  TIP3      OH2           -12.7295811470       35.9228175656       29.7982782420  TIP3      3347            0.0000000000
     34956      3547  TIP3      H1            -12.8969563671       34.9662875429       29.6940935517  TIP3      3347            0.0000000000
     34957      3547  TIP3      H2            -13.6116338069       36.2459839415       30.0764608197  TIP3      3347            0.0000000000
     34958      3548  TIP3      OH2            -4.3720966285       35.8435392612       22.8602008955  TIP3      3348            0.0000000000
     34959      3548  TIP3      H1             -5.3309318330       35.9682326289       23.0028912457  TIP3      3348            0.0000000000
     34960      3548  TIP3      H2             -4.2041051058       36.6067301882       22.2955328491  TIP3      3348            0.0000000000
     34961      3549  TIP3      OH2           -15.3644863615       36.8064185405       30.4964918158  TIP3      3349            0.0000000000
     34962      3549  TIP3      H1            -16.2810104727       36.6708462525       30.1573701639  TIP3      3349            0.0000000000
     34963      3549  TIP3      H2            -15.4964901456       37.6404668177       30.9770142210  TIP3      3349            0.0000000000
     34964      3550  TIP3      OH2           -10.7413838487       36.4964426416       33.9120898681  TIP3      3350            0.0000000000
     34965      3550  TIP3      H1            -10.3374024143       36.0642898127       34.6867570630  TIP3      3350            0.0000000000
     34966      3550  TIP3      H2            -11.7121776743       36.3591831201       34.0369363270  TIP3      3350            0.0000000000
     34967      3551  TIP3      OH2           -10.8553291493       38.8376552005       21.5273354781  TIP3      3351            0.0000000000
     34968      3551  TIP3      H1            -11.4656135789       39.0905316866       22.2365131496  TIP3      3351            0.0000000000
     34969      3551  TIP3      H2            -11.5082665955       38.5327619632       20.8763502592  TIP3      3351            0.0000000000
     34970      3552  TIP3      OH2           -14.3678299180       39.1504348176       20.5011374135  TIP3      3352            0.0000000000
     34971      3552  TIP3      H1            -14.9457830487       38.9857654478       21.2465911933  TIP3      3352            0.0000000000
     34972      3552  TIP3      H2            -14.9188775843       39.7265181529       19.8880189353  TIP3      3352            0.0000000000
     34973      3553  TIP3      OH2           -20.9620190910       39.1107900893       27.4239145534  TIP3      3353            0.0000000000
     34974      3553  TIP3      H1            -20.2815116965       39.1115862142       28.1341833241  TIP3      3353            0.0000000000
     34975      3553  TIP3      H2            -20.4969678874       38.7565363311       26.6368210588  TIP3      3353            0.0000000000
     34976      3554  TIP3      OH2           -12.6144708998       38.9845207570       27.6777493570  TIP3      3354            0.0000000000
     34977      3554  TIP3      H1            -13.5448062803       39.2238362322       27.8751061690  TIP3      3354            0.0000000000
     34978      3554  TIP3      H2            -12.1816424684       39.3531195870       28.4809192617  TIP3      3354            0.0000000000
     34979      3555  TIP3      OH2            -8.3091012249       38.6902098200       30.8694371814  TIP3      3355            0.0000000000
     34980      3555  TIP3      H1             -8.9816510723       38.7683227871       31.5940661486  TIP3      3355            0.0000000000
     34981      3555  TIP3      H2             -8.8600440279       38.4604070180       30.1165494084  TIP3      3355            0.0000000000
     34982      3556  TIP3      OH2           -16.4507124653       38.3882107748       25.9941168509  TIP3      3356            0.0000000000
     34983      3556  TIP3      H1            -16.7588966676       37.4628310766       25.9664047027  TIP3      3356            0.0000000000
     34984      3556  TIP3      H2            -15.6607751384       38.3451215699       25.4404069292  TIP3      3356            0.0000000000
     34985      3557  TIP3      OH2            -8.4025508869      -40.1484699438       21.9951290279  TIP3      3357            0.0000000000
     34986      3557  TIP3      H1             -9.3171408407      -40.0727264159       21.6332232120  TIP3      3357            0.0000000000
     34987      3557  TIP3      H2             -8.1164413451      -39.2351703545       22.0422833165  TIP3      3357            0.0000000000
     34988      3558  TIP3      OH2           -18.5007300119       39.2691059014       34.2095030603  TIP3      3358            0.0000000000
     34989      3558  TIP3      H1            -19.3763105388       39.6709354221       34.2359712495  TIP3      3358            0.0000000000
     34990      3558  TIP3      H2            -18.6008573655       38.4692989037       34.7374827038  TIP3      3358            0.0000000000
     34991      3559  TIP3      OH2            -9.6917079637       38.8937536332       33.1029186180  TIP3      3359            0.0000000000
     34992      3559  TIP3      H1             -9.0877497859       39.1237647751       33.8167006518  TIP3      3359            0.0000000000
     34993      3559  TIP3      H2            -10.1464957613       38.1103027368       33.4530894215  TIP3      3359            0.0000000000
     34994      3560  TIP3      OH2            -9.0693331668       38.7986056897       24.3932114978  TIP3      3360            0.0000000000
     34995      3560  TIP3      H1             -8.7862445395       39.0538187740       23.4679135723  TIP3      3360            0.0000000000
     34996      3560  TIP3      H2             -8.2584479163       38.9234533550       24.9175374631  TIP3      3360            0.0000000000
     34997      3561  TIP3      OH2           -10.9184887611       37.4894512132       26.0171748894  TIP3      3361            0.0000000000
     34998      3561  TIP3      H1            -11.2870240477       38.1181848624       26.6864300900  TIP3      3361            0.0000000000
     34999      3561  TIP3      H2            -10.2471952582       37.9990122407       25.5324246720  TIP3      3361            0.0000000000
     35000      3562  TIP3      OH2           -15.2825675139       38.5491697988       22.8744381929  TIP3      3362            0.0000000000
     35001      3562  TIP3      H1            -15.3218556392       39.4732177738       23.1374582731  TIP3      3362            0.0000000000
     35002      3562  TIP3      H2            -14.3391202723       38.3307798017       22.9986263341  TIP3      3362            0.0000000000
     35003      3563  TIP3      OH2            -5.3399867060       38.9845964223       35.2219316556  TIP3      3363            0.0000000000
     35004      3563  TIP3      H1             -6.0894304385       39.5708948134       35.0686894883  TIP3      3363            0.0000000000
     35005      3563  TIP3      H2             -4.9149099734       39.1108989569       34.3475448937  TIP3      3363            0.0000000000
     35006      3564  TIP3      OH2           -17.8696086591       36.4570320142       29.6553728940  TIP3      3364            0.0000000000
     35007      3564  TIP3      H1            -18.0674770312       36.4858617391       28.6920549247  TIP3      3364            0.0000000000
     35008      3564  TIP3      H2            -18.2985410978       35.6157529744       29.9063982072  TIP3      3364            0.0000000000
     35009      3565  TIP3      OH2           -14.2306861746       38.4636291260       33.1919383295  TIP3      3365            0.0000000000
     35010      3565  TIP3      H1            -13.6788272271       39.1078831710       32.7087397285  TIP3      3365            0.0000000000
     35011      3565  TIP3      H2            -15.1649315072       38.6280600435       32.9308568886  TIP3      3365            0.0000000000
     35012      3566  TIP3      OH2           -13.3877404164       36.1453957770       33.8468121532  TIP3      3366            0.0000000000
     35013      3566  TIP3      H1            -13.5718121203       37.1092534193       33.7059646018  TIP3      3366            0.0000000000
     35014      3566  TIP3      H2            -14.1348659796       35.7989105888       33.3304376857  TIP3      3366            0.0000000000
     35015      3567  TIP3      OH2            -9.5171710533       39.4411172240       36.2641467329  TIP3      3367            0.0000000000
     35016      3567  TIP3      H1            -10.3536803486       39.7298836244       36.6275595994  TIP3      3367            0.0000000000
     35017      3567  TIP3      H2             -9.1112831568       39.1293109613       37.0871868017  TIP3      3367            0.0000000000
     35018      3568  TIP3      OH2            -7.6564167247       37.9612867150       38.6549667424  TIP3      3368            0.0000000000
     35019      3568  TIP3      H1             -7.9712440257       37.0576323932       38.4901113939  TIP3      3368            0.0000000000
     35020      3568  TIP3      H2             -8.1478485158       38.3125201134       39.4132314950  TIP3      3368            0.0000000000
     35021      3569  TIP3      OH2           -18.1952271511       39.3017958644       37.6479737958  TIP3      3369            0.0000000000
     35022      3569  TIP3      H1            -17.8476653567       38.6795213041       36.9849407540  TIP3      3369            0.0000000000
     35023      3569  TIP3      H2            -18.1458729866       38.8696835933       38.5217988709  TIP3      3369            0.0000000000
     35024      3570  TIP3      OH2           -13.1625533143       35.6258747840       36.5082002039  TIP3      3370            0.0000000000
     35025      3570  TIP3      H1            -12.5158509181       34.8878590367       36.5076925646  TIP3      3370            0.0000000000
     35026      3570  TIP3      H2            -13.2984155503       35.7089547156       35.5412914282  TIP3      3370            0.0000000000
     35027      3571  TIP3      OH2           -12.7827722034       37.1414667368       38.6402760215  TIP3      3371            0.0000000000
     35028      3571  TIP3      H1            -12.9915913895       36.6655697713       37.7979262381  TIP3      3371            0.0000000000
     35029      3571  TIP3      H2            -13.3870595074       37.9137569258       38.5559588239  TIP3      3371            0.0000000000
     35030      3572  TIP3      OH2            -2.5162051733       36.0625023293       38.5310667234  TIP3      3372            0.0000000000
     35031      3572  TIP3      H1             -2.1423496987       35.4132241931       37.9115088412  TIP3      3372            0.0000000000
     35032      3572  TIP3      H2             -2.3992833584       36.8963471658       38.0374680242  TIP3      3372            0.0000000000
     35033      3573  TIP3      OH2            -4.8489736054       38.0376368445       25.0871654702  TIP3      3373            0.0000000000
     35034      3573  TIP3      H1             -4.5793562656       37.5829498731       25.9146965946  TIP3      3373            0.0000000000
     35035      3573  TIP3      H2             -5.4105597030       37.3762383443       24.6324943911  TIP3      3373            0.0000000000
     35036      3574  TIP3      OH2           -19.3202532374       38.7705484248       29.5647991296  TIP3      3374            0.0000000000
     35037      3574  TIP3      H1            -18.8408614601       37.9740687960       29.8792513835  TIP3      3374            0.0000000000
     35038      3574  TIP3      H2            -19.0751390824       39.4642078653       30.1728912798  TIP3      3374            0.0000000000
     35039      3575  TIP3      OH2            -2.9636748970       38.2313798058       36.8689351875  TIP3      3375            0.0000000000
     35040      3575  TIP3      H1             -3.9036279005       38.4963632047       36.8730669177  TIP3      3375            0.0000000000
     35041      3575  TIP3      H2             -2.9470323087       37.6267397609       36.1122253038  TIP3      3375            0.0000000000
     35042      3576  TIP3      OH2           -20.6464322897       38.1797575238       24.7685959222  TIP3      3376            0.0000000000
     35043      3576  TIP3      H1            -21.6007720564       38.3023669210       24.6005145619  TIP3      3376            0.0000000000
     35044      3576  TIP3      H2            -20.2694920601       38.6051153603       23.9974475108  TIP3      3376            0.0000000000
     35045      3577  TIP3      OH2           -20.7056811629       36.8479153363       33.0191670679  TIP3      3377            0.0000000000
     35046      3577  TIP3      H1            -21.3774717013       36.5715595197       33.6727430479  TIP3      3377            0.0000000000
     35047      3577  TIP3      H2            -21.2069157446       37.4541453026       32.4401658179  TIP3      3377            0.0000000000
     35048      3578  TIP3      OH2            -3.9923707385       36.2529427390       34.7842824105  TIP3      3378            0.0000000000
     35049      3578  TIP3      H1             -4.7767839049       36.5991229458       34.3270694024  TIP3      3378            0.0000000000
     35050      3578  TIP3      H2             -3.7831245091       35.4708716453       34.2216927329  TIP3      3378            0.0000000000
     35051      3579  TIP3      OH2           -10.4962596355       37.7191280081       29.0624095608  TIP3      3379            0.0000000000
     35052      3579  TIP3      H1            -11.2183852915       37.1171550378       29.3297860722  TIP3      3379            0.0000000000
     35053      3579  TIP3      H2            -10.0102641578       37.1220602810       28.4735926841  TIP3      3379            0.0000000000
     35054      3580  TIP3      OH2            -5.5407499830       35.6141227176       28.6933819618  TIP3      3380            0.0000000000
     35055      3580  TIP3      H1             -4.8315340242       36.3039387922       28.6248878991  TIP3      3380            0.0000000000
     35056      3580  TIP3      H2             -6.3074421948       36.1733336154       28.8909034872  TIP3      3380            0.0000000000
     35057      3581  TIP3      OH2            -3.7450449593       37.0205404690       27.3762327433  TIP3      3381            0.0000000000
     35058      3581  TIP3      H1             -3.0528418935       36.4419016508       26.9969030419  TIP3      3381            0.0000000000
     35059      3581  TIP3      H2             -3.2467176059       37.8413301540       27.5602351269  TIP3      3381            0.0000000000
     35060      3582  TIP3      OH2           -18.1898874105       36.3506175530       26.8867917022  TIP3      3382            0.0000000000
     35061      3582  TIP3      H1            -19.0115543210       36.1475840041       26.4050828469  TIP3      3382            0.0000000000
     35062      3582  TIP3      H2            -17.7364801020       35.4851617589       26.8586991765  TIP3      3382            0.0000000000
     35063      3583  TIP3      OH2           -13.7279159886       36.2111677180       26.6668541123  TIP3      3383            0.0000000000
     35064      3583  TIP3      H1            -12.8421724400       36.6040774513       26.6332073023  TIP3      3383            0.0000000000
     35065      3583  TIP3      H2            -13.7873707879       36.0601251661       27.6102605369  TIP3      3383            0.0000000000
     35066      3584  TIP3      OH2            -8.1822026224       36.3546717837       28.2988703754  TIP3      3384            0.0000000000
     35067      3584  TIP3      H1             -7.9974855835       36.3348044586       27.3568765519  TIP3      3384            0.0000000000
     35068      3584  TIP3      H2             -8.3937932865       35.4102520879       28.4686113909  TIP3      3384            0.0000000000
     35069      3585  TIP3      OH2            -6.7545040006       36.3836666466       24.0512259422  TIP3      3385            0.0000000000
     35070      3585  TIP3      H1             -7.4917768065       36.8983504707       23.7432310176  TIP3      3385            0.0000000000
     35071      3585  TIP3      H2             -7.1486557068       35.4891885009       24.1867036034  TIP3      3385            0.0000000000
     35072      3586  TIP3      OH2           -12.4943707477       38.3576949364       23.5783596907  TIP3      3386            0.0000000000
     35073      3586  TIP3      H1            -12.3482817207       37.7206495613       24.2920494936  TIP3      3386            0.0000000000
     35074      3586  TIP3      H2            -12.6004100018       39.1904899009       24.0574816842  TIP3      3386            0.0000000000
     35075      3587  TIP3      OH2           -18.3321185372       36.8755206361       36.3617000899  TIP3      3387            0.0000000000
     35076      3587  TIP3      H1            -18.7053839797       36.0758497832       36.7792981559  TIP3      3387            0.0000000000
     35077      3587  TIP3      H2            -17.4214950192       36.8417207269       36.7318578051  TIP3      3387            0.0000000000
     35078      3588  TIP3      OH2           -16.2913323063       36.2613393507       38.0122786476  TIP3      3388            0.0000000000
     35079      3588  TIP3      H1            -15.4140780270       35.8941453778       37.7814256344  TIP3      3388            0.0000000000
     35080      3588  TIP3      H2            -16.6845169059       35.4630288538       38.4166480280  TIP3      3388            0.0000000000
     35081      3589  TIP3      OH2            -7.9128207232       35.4388510477       38.1261222174  TIP3      3389            0.0000000000
     35082      3589  TIP3      H1             -7.7803775674       35.1111538516       39.0253686187  TIP3      3389            0.0000000000
     35083      3589  TIP3      H2             -6.9909203573       35.5521444253       37.8024127473  TIP3      3389            0.0000000000
     35084      3590  TIP3      OH2            15.5393465456       38.8799020174       31.5025687663  TIP3      3390            0.0000000000
     35085      3590  TIP3      H1             15.8159769852       39.4375147069       32.2340879409  TIP3      3390            0.0000000000
     35086      3590  TIP3      H2             16.1275780465       39.1923112591       30.7997163658  TIP3      3390            0.0000000000
     35087      3591  TIP3      OH2             3.3335312446       39.6126632420       28.2542267252  TIP3      3391            0.0000000000
     35088      3591  TIP3      H1              3.3387464633       40.4818453841       27.8343717666  TIP3      3391            0.0000000000
     35089      3591  TIP3      H2              2.8667235886       39.0781646527       27.5852895266  TIP3      3391            0.0000000000
     35090      3592  TIP3      OH2            11.1360318597      -40.1542489665       26.3869355710  TIP3      3392            0.0000000000
     35091      3592  TIP3      H1             11.6721907534      -40.4175576845       27.1712162943  TIP3      3392            0.0000000000
     35092      3592  TIP3      H2             11.6752972026      -39.4404513236       26.0146270639  TIP3      3392            0.0000000000
     35093      3593  TIP3      OH2             2.1460639257       38.5678639774       32.2746148979  TIP3      3393            0.0000000000
     35094      3593  TIP3      H1              1.8925558005       39.1646532166       31.5706696354  TIP3      3393            0.0000000000
     35095      3593  TIP3      H2              1.5140233638       38.8303952896       32.9966327694  TIP3      3393            0.0000000000
     35096      3594  TIP3      OH2            12.6976466514       38.7174915708       28.4655853559  TIP3      3394            0.0000000000
     35097      3594  TIP3      H1             12.4614261795       38.1322568781       29.1948290535  TIP3      3394            0.0000000000
     35098      3594  TIP3      H2             13.3883184225       39.2350888122       28.9166153071  TIP3      3394            0.0000000000
     35099      3595  TIP3      OH2            13.1544277389       37.8545730406       32.3711237873  TIP3      3395            0.0000000000
     35100      3595  TIP3      H1             12.3813240623       38.3953939341       32.2080904887  TIP3      3395            0.0000000000
     35101      3595  TIP3      H2             13.8651196646       38.2069823972       31.7917639852  TIP3      3395            0.0000000000
     35102      3596  TIP3      OH2             6.1289919478       35.9235532785       29.7901322676  TIP3      3396            0.0000000000
     35103      3596  TIP3      H1              5.9571608336       34.9631656921       29.6962586937  TIP3      3396            0.0000000000
     35104      3596  TIP3      H2              5.2470797989       36.2438069372       30.0775790947  TIP3      3396            0.0000000000
     35105      3597  TIP3      OH2            14.5198299394       35.8193686039       22.8270110256  TIP3      3397            0.0000000000
     35106      3597  TIP3      H1             13.5758322031       35.9734574754       23.0611790735  TIP3      3397            0.0000000000
     35107      3597  TIP3      H2             14.7045950488       36.6863580751       22.4127269277  TIP3      3397            0.0000000000
     35108      3598  TIP3      OH2             3.4857734052       36.7955342309       30.5038593305  TIP3      3398            0.0000000000
     35109      3598  TIP3      H1              2.5726328144       36.6713578748       30.1534493633  TIP3      3398            0.0000000000
     35110      3598  TIP3      H2              3.3594045855       37.6359126016       30.9765466491  TIP3      3398            0.0000000000
     35111      3599  TIP3      OH2             8.1151472603       36.5052404852       33.9151787767  TIP3      3399            0.0000000000
     35112      3599  TIP3      H1              8.5224304766       36.0667146603       34.6850362426  TIP3      3399            0.0000000000
     35113      3599  TIP3      H2              7.1446045409       36.3590149729       34.0365289879  TIP3      3399            0.0000000000
     35114      3600  TIP3      OH2             7.9212253642       38.4723448092       21.6185050932  TIP3      3400            0.0000000000
     35115      3600  TIP3      H1              7.3508095373       38.9794021962       22.2193608397  TIP3      3400            0.0000000000
     35116      3600  TIP3      H2              7.3073594964       38.1602141362       20.9536901352  TIP3      3400            0.0000000000
     35117      3601  TIP3      OH2             4.3644810241       38.5872228557       20.8257476631  TIP3      3401            0.0000000000
     35118      3601  TIP3      H1              3.8562105360       38.8573997553       21.5817759588  TIP3      3401            0.0000000000
     35119      3601  TIP3      H2              4.1738525500       39.2850508536       20.2045992255  TIP3      3401            0.0000000000
     35120      3602  TIP3      OH2            -2.0853813413       39.1753955635       27.4105225494  TIP3      3402            0.0000000000
     35121      3602  TIP3      H1             -1.4362464086       39.1063067951       28.1433138769  TIP3      3402            0.0000000000
     35122      3602  TIP3      H2             -1.6505721790       38.7664499712       26.6346913350  TIP3      3402            0.0000000000
     35123      3603  TIP3      OH2             6.1840797592       38.9660525295       27.7020637541  TIP3      3403            0.0000000000
     35124      3603  TIP3      H1              5.2700284336       39.2432176528       27.9086486355  TIP3      3403            0.0000000000
     35125      3603  TIP3      H2              6.6712757922       39.3711101697       28.4480380964  TIP3      3403            0.0000000000
     35126      3604  TIP3      OH2            10.5605274514       38.7736870421       30.8892814455  TIP3      3404            0.0000000000
     35127      3604  TIP3      H1              9.8439693006       38.7161721102       31.5732786550  TIP3      3404            0.0000000000
     35128      3604  TIP3      H2             10.0447577978       38.4673785710       30.1170263205  TIP3      3404            0.0000000000
     35129      3605  TIP3      OH2             2.3918234897       38.3754428715       26.0086595185  TIP3      3405            0.0000000000
     35130      3605  TIP3      H1              2.0786394695       37.4530178953       25.9310085104  TIP3      3405            0.0000000000
     35131      3605  TIP3      H2              3.1810113211       38.3506253235       25.4418964091  TIP3      3405            0.0000000000
     35132      3606  TIP3      OH2            10.4934776481      -40.1479340222       22.1317861579  TIP3      3406            0.0000000000
     35133      3606  TIP3      H1              9.6829277147      -40.0783191706       21.5364838153  TIP3      3406            0.0000000000
     35134      3606  TIP3      H2             10.8108325480      -39.2572755245       21.9843266094  TIP3      3406            0.0000000000
     35135      3607  TIP3      OH2             0.3580017894       39.2679852488       34.2156571681  TIP3      3407            0.0000000000
     35136      3607  TIP3      H1             -0.5197062537       39.6701611032       34.2371769742  TIP3      3407            0.0000000000
     35137      3607  TIP3      H2              0.2516756674       38.4594586118       34.7313562648  TIP3      3407            0.0000000000
     35138      3608  TIP3      OH2             9.2048942759       38.8969595618       33.1062336502  TIP3      3408            0.0000000000
     35139      3608  TIP3      H1              9.7192852123       39.1029709941       33.8891872840  TIP3      3408            0.0000000000
     35140      3608  TIP3      H2              8.7033230379       38.1240248809       33.4310486762  TIP3      3408            0.0000000000
     35141      3609  TIP3      OH2             9.7953306367       38.6446604546       24.3757517441  TIP3      3409            0.0000000000
     35142      3609  TIP3      H1             10.0349095078       39.0905796211       23.5208396197  TIP3      3409            0.0000000000
     35143      3609  TIP3      H2             10.3643574738       39.1016266899       25.0200381937  TIP3      3409            0.0000000000
     35144      3610  TIP3      OH2             7.9432661190       37.4895772583       26.0347839706  TIP3      3410            0.0000000000
     35145      3610  TIP3      H1              7.5901710698       38.1526453872       26.6652947366  TIP3      3410            0.0000000000
     35146      3610  TIP3      H2              8.6037232272       38.0374966070       25.5477800479  TIP3      3410            0.0000000000
     35147      3611  TIP3      OH2             3.4786445512       38.5443033271       23.1345882167  TIP3      3411            0.0000000000
     35148      3611  TIP3      H1              3.5392897355       39.5001737059       23.1669487299  TIP3      3411            0.0000000000
     35149      3611  TIP3      H2              4.4231141516       38.2681492803       23.0096692666  TIP3      3411            0.0000000000
     35150      3612  TIP3      OH2            13.4757343619       38.9146942713       35.1064031565  TIP3      3412            0.0000000000
     35151      3612  TIP3      H1             12.7799478252       39.5738538109       35.1202729457  TIP3      3412            0.0000000000
     35152      3612  TIP3      H2             14.0198225126       39.1904491017       34.3675608966  TIP3      3412            0.0000000000
     35153      3613  TIP3      OH2             1.0124005873       36.4530423400       29.6504452846  TIP3      3413            0.0000000000
     35154      3613  TIP3      H1              0.7861060039       36.4931244726       28.6960416224  TIP3      3413            0.0000000000
     35155      3613  TIP3      H2              0.5447578501       35.6296692491       29.9105370654  TIP3      3413            0.0000000000
     35156      3614  TIP3      OH2             4.6262938151       38.4674572557       33.1954505505  TIP3      3414            0.0000000000
     35157      3614  TIP3      H1              5.1770149004       39.1079930406       32.7067797582  TIP3      3414            0.0000000000
     35158      3614  TIP3      H2              3.6931421376       38.6278183495       32.9292093867  TIP3      3414            0.0000000000
     35159      3615  TIP3      OH2             5.4701559706       36.1448629993       33.8472944902  TIP3      3415            0.0000000000
     35160      3615  TIP3      H1              5.2860237183       37.1074659065       33.7070919426  TIP3      3415            0.0000000000
     35161      3615  TIP3      H2              4.7209158834       35.7981846149       33.3308988685  TIP3      3415            0.0000000000
     35162      3616  TIP3      OH2             9.3504976651       39.4725507903       36.2507370295  TIP3      3416            0.0000000000
     35163      3616  TIP3      H1              8.5023167878       39.7229878431       36.6293402990  TIP3      3416            0.0000000000
     35164      3616  TIP3      H2              9.7484339881       39.1387091439       37.0686556868  TIP3      3416            0.0000000000
     35165      3617  TIP3      OH2            11.1979626099       37.9625898907       38.6547948916  TIP3      3417            0.0000000000
     35166      3617  TIP3      H1             10.8937243292       37.0458785218       38.5115094893  TIP3      3417            0.0000000000
     35167      3617  TIP3      H2             10.7088148855       38.3149651636       39.4142862510  TIP3      3417            0.0000000000
     35168      3618  TIP3      OH2             0.6574531032       39.2997816644       37.6484836887  TIP3      3418            0.0000000000
     35169      3618  TIP3      H1              1.0114673228       38.6797945514       36.9868988008  TIP3      3418            0.0000000000
     35170      3618  TIP3      H2              0.7110078485       38.8690628709       38.5224617828  TIP3      3418            0.0000000000
     35171      3619  TIP3      OH2             5.7011573871       35.6317398480       36.5072083734  TIP3      3419            0.0000000000
     35172      3619  TIP3      H1              6.3276988230       34.8755560309       36.5172632924  TIP3      3419            0.0000000000
     35173      3619  TIP3      H2              5.5594939804       35.7063999598       35.5403866227  TIP3      3419            0.0000000000
     35174      3620  TIP3      OH2             6.0713645460       37.1451716113       38.6404981445  TIP3      3420            0.0000000000
     35175      3620  TIP3      H1              5.8633283292       36.6677470439       37.7987040787  TIP3      3420            0.0000000000
     35176      3620  TIP3      H2              5.4699353067       37.9197449953       38.5559977525  TIP3      3420            0.0000000000
     35177      3621  TIP3      OH2            16.3358710423       36.0613015176       38.5297843945  TIP3      3421            0.0000000000
     35178      3621  TIP3      H1             16.7122462337       35.4102003663       37.9137061166  TIP3      3421            0.0000000000
     35179      3621  TIP3      H2             16.4590703028       36.8951938738       38.0392399860  TIP3      3421            0.0000000000
     35180      3622  TIP3      OH2            14.0652771321       37.9996709153       25.0395914827  TIP3      3422            0.0000000000
     35181      3622  TIP3      H1             14.2486021203       37.5834028534       25.8979267121  TIP3      3422            0.0000000000
     35182      3622  TIP3      H2             13.4183372284       37.4073197643       24.6269961267  TIP3      3422            0.0000000000
     35183      3623  TIP3      OH2            -0.4373097357       38.7741540372       29.5397880288  TIP3      3423            0.0000000000
     35184      3623  TIP3      H1              0.0060789770       37.9723833473       29.8900755179  TIP3      3423            0.0000000000
     35185      3623  TIP3      H2             -0.2406175242       39.4586174854       30.1804911662  TIP3      3423            0.0000000000
     35186      3624  TIP3      OH2            15.8943426313       38.2502236260       36.8698179154  TIP3      3424            0.0000000000
     35187      3624  TIP3      H1             14.9496121310       38.4874822951       36.8800540545  TIP3      3424            0.0000000000
     35188      3624  TIP3      H2             15.9145640258       37.6222492669       36.1326531005  TIP3      3424            0.0000000000
     35189      3625  TIP3      OH2            15.9088223319       37.9901925555       21.5813193789  TIP3      3425            0.0000000000
     35190      3625  TIP3      H1             16.3492181606       37.3776402655       21.0196582472  TIP3      3425            0.0000000000
     35191      3625  TIP3      H2             16.4608927255       38.7777985701       21.6260105198  TIP3      3425            0.0000000000
     35192      3626  TIP3      OH2            -1.7932726077       38.2199750421       24.7908908955  TIP3      3426            0.0000000000
     35193      3626  TIP3      H1             -2.7449652115       38.2976399105       24.5998683800  TIP3      3426            0.0000000000
     35194      3626  TIP3      H2             -1.4026771089       38.6257437698       24.0093363911  TIP3      3426            0.0000000000
     35195      3627  TIP3      OH2            -1.8160959297       36.8943511228       33.0595520251  TIP3      3427            0.0000000000
     35196      3627  TIP3      H1             -2.5189664460       36.5664508203       33.6488647173  TIP3      3427            0.0000000000
     35197      3627  TIP3      H2             -2.3638431486       37.4102999964       32.4203929244  TIP3      3427            0.0000000000
     35198      3628  TIP3      OH2            14.9034385771       36.2852689500       34.7577701915  TIP3      3428            0.0000000000
     35199      3628  TIP3      H1             14.0579636490       36.5559425953       34.3513634532  TIP3      3428            0.0000000000
     35200      3628  TIP3      H2             15.0623376051       35.4470246678       34.2684278173  TIP3      3428            0.0000000000
     35201      3629  TIP3      OH2             8.3728441710       37.7141572266       29.1178306995  TIP3      3429            0.0000000000
     35202      3629  TIP3      H1              7.6291659927       37.1181157706       29.3237032167  TIP3      3429            0.0000000000
     35203      3629  TIP3      H2              8.8330062561       37.1602177719       28.4696332901  TIP3      3429            0.0000000000
     35204      3630  TIP3      OH2            13.4175941372       35.7988539926       29.1572827309  TIP3      3430            0.0000000000
     35205      3630  TIP3      H1             14.0412930183       36.3586450286       28.6252765466  TIP3      3430            0.0000000000
     35206      3630  TIP3      H2             12.5412279240       36.1463565584       28.8885472167  TIP3      3430            0.0000000000
     35207      3631  TIP3      OH2            15.1124663638       36.9619669013       27.4395707120  TIP3      3431            0.0000000000
     35208      3631  TIP3      H1             15.7885368800       36.4312340855       26.9657951144  TIP3      3431            0.0000000000
     35209      3631  TIP3      H2             15.5844840860       37.8258261008       27.5127061657  TIP3      3431            0.0000000000
     35210      3632  TIP3      OH2             0.6506003093       36.3506778246       26.9067536531  TIP3      3432            0.0000000000
     35211      3632  TIP3      H1             -0.1318981362       36.1476968467       26.3645044926  TIP3      3432            0.0000000000
     35212      3632  TIP3      H2              1.1182219905       35.4907613488       26.8437429795  TIP3      3432            0.0000000000
     35213      3633  TIP3      OH2            -0.4807136268       36.1082173021       22.7442256916  TIP3      3433            0.0000000000
     35214      3633  TIP3      H1             -0.1285084239       36.7133364697       22.0602371873  TIP3      3433            0.0000000000
     35215      3633  TIP3      H2             -1.1811632432       36.6333018736       23.1566543985  TIP3      3433            0.0000000000
     35216      3634  TIP3      OH2             5.1398340819       36.2478009486       26.6762234901  TIP3      3434            0.0000000000
     35217      3634  TIP3      H1              6.0382685238       36.6206746111       26.6229107040  TIP3      3434            0.0000000000
     35218      3634  TIP3      H2              5.0867822280       36.0714745242       27.6186613102  TIP3      3434            0.0000000000
     35219      3635  TIP3      OH2            10.8112933160       36.3076550806       28.3080034689  TIP3      3435            0.0000000000
     35220      3635  TIP3      H1             10.8060114726       36.3787906849       27.3459393190  TIP3      3435            0.0000000000
     35221      3635  TIP3      H2             10.4297571341       35.4109043207       28.4600707289  TIP3      3435            0.0000000000
     35222      3636  TIP3      OH2            12.0765764251       36.3398391208       23.9598621812  TIP3      3436            0.0000000000
     35223      3636  TIP3      H1             11.3430254164       36.9467348213       23.8073292561  TIP3      3436            0.0000000000
     35224      3636  TIP3      H2             11.6466036963       35.4994325917       24.2424684765  TIP3      3436            0.0000000000
     35225      3637  TIP3      OH2             1.2844074591       38.0397418002       21.1088692791  TIP3      3437            0.0000000000
     35226      3637  TIP3      H1              1.8013889528       37.3642493119       20.6442377749  TIP3      3437            0.0000000000
     35227      3637  TIP3      H2              1.8875468132       38.2646578543       21.8278309150  TIP3      3437            0.0000000000
     35228      3638  TIP3      OH2             6.2314020129       38.3457979848       23.6175445283  TIP3      3438            0.0000000000
     35229      3638  TIP3      H1              6.5611605472       37.7023363483       24.2622629322  TIP3      3438            0.0000000000
     35230      3638  TIP3      H2              6.2954219425       39.1795672151       24.0882975639  TIP3      3438            0.0000000000
     35231      3639  TIP3      OH2             0.5218325679       36.8732748146       36.3626905314  TIP3      3439            0.0000000000
     35232      3639  TIP3      H1              0.1483837986       36.0755700167       36.7822752967  TIP3      3439            0.0000000000
     35233      3639  TIP3      H2              1.4331707439       36.8412826198       36.7301805156  TIP3      3439            0.0000000000
     35234      3640  TIP3      OH2             2.5651767093       36.2618231776       38.0123355187  TIP3      3440            0.0000000000
     35235      3640  TIP3      H1              3.4432626999       35.8945629795       37.7837868408  TIP3      3440            0.0000000000
     35236      3640  TIP3      H2              2.1695821870       35.4638946121       38.4133817394  TIP3      3440            0.0000000000
     35237      3641  TIP3      OH2            10.9428500902       35.4572970043       38.1376325307  TIP3      3441            0.0000000000
     35238      3641  TIP3      H1             11.0571736513       35.0647685969       39.0229041753  TIP3      3441            0.0000000000
     35239      3641  TIP3      H2             11.8708431160       35.5193592857       37.8205079054  TIP3      3441            0.0000000000
     35240      3642  TIP3      OH2            34.4837828238       38.8285900051       31.5367068787  TIP3      3442            0.0000000000
     35241      3642  TIP3      H1             34.6386367287       39.4809022141       32.2228569899  TIP3      3442            0.0000000000
     35242      3642  TIP3      H2             34.9640259221       39.2095259311       30.7880438218  TIP3      3442            0.0000000000
     35243      3643  TIP3      OH2            22.2149834977       39.6151128987       28.2413348493  TIP3      3443            0.0000000000
     35244      3643  TIP3      H1             22.1687961711       40.4915164420       27.8478580435  TIP3      3443            0.0000000000
     35245      3643  TIP3      H2             21.7173344935       39.0680162674       27.6066365945  TIP3      3443            0.0000000000
     35246      3644  TIP3      OH2            30.0338004916      -40.1924911778       26.3563956607  TIP3      3444            0.0000000000
     35247      3644  TIP3      H1             30.5238655624      -40.3785998486       27.1973244562  TIP3      3444            0.0000000000
     35248      3644  TIP3      H2             30.5097174922      -39.4182610264       26.0244207127  TIP3      3444            0.0000000000
     35249      3645  TIP3      OH2            21.0033654058       38.5687263022       32.2760600380  TIP3      3445            0.0000000000
     35250      3645  TIP3      H1             20.7496742472       39.1640861296       31.5715843378  TIP3      3445            0.0000000000
     35251      3645  TIP3      H2             20.3703127296       38.8305544560       32.9972955209  TIP3      3445            0.0000000000
     35252      3646  TIP3      OH2            31.5833309281       38.6610256223       28.4440198046  TIP3      3446            0.0000000000
     35253      3646  TIP3      H1             31.3064308803       38.1759954563       29.2305481388  TIP3      3446            0.0000000000
     35254      3646  TIP3      H2             32.2074559979       39.2623576624       28.8997894347  TIP3      3446            0.0000000000
     35255      3647  TIP3      OH2            32.0001300323       37.8367416087       32.3653408047  TIP3      3447            0.0000000000
     35256      3647  TIP3      H1             31.2367435676       38.4069127695       32.2257376415  TIP3      3447            0.0000000000
     35257      3647  TIP3      H2             32.6810268828       38.2329399834       31.7882326197  TIP3      3447            0.0000000000
     35258      3648  TIP3      OH2            24.9815477752       35.9334020499       29.7838309090  TIP3      3448            0.0000000000
     35259      3648  TIP3      H1             24.8280595925       34.9719058602       29.6993719592  TIP3      3448            0.0000000000
     35260      3648  TIP3      H2             24.1001816584       36.2405951084       30.0806118867  TIP3      3448            0.0000000000
     35261      3649  TIP3      OH2            33.3015348779       35.8940413693       22.8317495990  TIP3      3449            0.0000000000
     35262      3649  TIP3      H1             32.3501014666       36.0043776413       22.9809679206  TIP3      3449            0.0000000000
     35263      3649  TIP3      H2             33.5014787573       36.6741779743       22.2758914590  TIP3      3449            0.0000000000
     35264      3650  TIP3      OH2            22.3384711181       36.7926578772       30.5049498400  TIP3      3450            0.0000000000
     35265      3650  TIP3      H1             21.4260344827       36.6695429076       30.1573729485  TIP3      3450            0.0000000000
     35266      3650  TIP3      H2             22.2163509224       37.6344697546       30.9767318288  TIP3      3450            0.0000000000
     35267      3651  TIP3      OH2            26.9681995240       36.4982144256       33.9111802291  TIP3      3451            0.0000000000
     35268      3651  TIP3      H1             27.3782379585       36.0663287779       34.6855412754  TIP3      3451            0.0000000000
     35269      3651  TIP3      H2             26.0002883751       36.3584685040       34.0369968786  TIP3      3451            0.0000000000
     35270      3652  TIP3      OH2            26.9942960026       38.5722358296       21.8904267807  TIP3      3452            0.0000000000
     35271      3652  TIP3      H1             26.2587390211       39.0660111746       22.2511997305  TIP3      3452            0.0000000000
     35272      3652  TIP3      H2             26.5628541781       38.3814586483       21.0113570946  TIP3      3452            0.0000000000
     35273      3653  TIP3      OH2            23.2181632776       39.1420258120       20.3602434850  TIP3      3453            0.0000000000
     35274      3653  TIP3      H1             22.8586648638       38.9808399532       21.2234332626  TIP3      3453            0.0000000000
     35275      3653  TIP3      H2             22.7292285544       39.7866416403       19.8473338537  TIP3      3453            0.0000000000
     35276      3654  TIP3      OH2            16.7577386400       39.1212191577       27.4105477384  TIP3      3454            0.0000000000
     35277      3654  TIP3      H1             17.4208672343       39.1096148447       28.1366922640  TIP3      3454            0.0000000000
     35278      3654  TIP3      H2             17.2193918768       38.7535343691       26.6373785473  TIP3      3454            0.0000000000
     35279      3655  TIP3      OH2            25.0592691533       38.9718343478       27.6892454409  TIP3      3455            0.0000000000
     35280      3655  TIP3      H1             24.1383025532       39.2090335595       27.9294366635  TIP3      3455            0.0000000000
     35281      3655  TIP3      H2             25.5423593634       39.3463695759       28.4577503221  TIP3      3455            0.0000000000
     35282      3656  TIP3      OH2            29.4124310355       38.6484651431       30.8936020928  TIP3      3456            0.0000000000
     35283      3656  TIP3      H1             28.7150117814       38.7735502712       31.5818399427  TIP3      3456            0.0000000000
     35284      3656  TIP3      H2             28.8609784154       38.5148179173       30.1186719504  TIP3      3456            0.0000000000
     35285      3657  TIP3      OH2            21.2526423397       38.3953799783       25.9547137892  TIP3      3457            0.0000000000
     35286      3657  TIP3      H1             20.9417431109       37.4663068776       25.9724019501  TIP3      3457            0.0000000000
     35287      3657  TIP3      H2             22.0647328784       38.3079600866       25.4402590486  TIP3      3457            0.0000000000
     35288      3658  TIP3      OH2            19.2070161915       39.2622855972       34.2069512180  TIP3      3458            0.0000000000
     35289      3658  TIP3      H1             18.3335250936       39.6679854386       34.2378701430  TIP3      3458            0.0000000000
     35290      3658  TIP3      H2             19.1083527520       38.4588546888       34.7324775525  TIP3      3458            0.0000000000
     35291      3659  TIP3      OH2            28.0238238702       38.8913681305       33.1031309268  TIP3      3459            0.0000000000
     35292      3659  TIP3      H1             28.5981092037       39.1343499972       33.8347614928  TIP3      3459            0.0000000000
     35293      3659  TIP3      H2             27.5685081845       38.1058139825       33.4519603703  TIP3      3459            0.0000000000
     35294      3660  TIP3      OH2            28.8517541908       38.5845395262       24.2897361070  TIP3      3460            0.0000000000
     35295      3660  TIP3      H1             28.8494282922       39.1366051233       23.4872537986  TIP3      3460            0.0000000000
     35296      3660  TIP3      H2             29.2152080861       39.1543541841       24.9978050633  TIP3      3460            0.0000000000
     35297      3661  TIP3      OH2            26.8469857817       37.4719093459       26.0390999805  TIP3      3461            0.0000000000
     35298      3661  TIP3      H1             26.4387404309       38.1067380153       26.6764505876  TIP3      3461            0.0000000000
     35299      3661  TIP3      H2             27.4340474464       38.0715296110       25.5459637545  TIP3      3461            0.0000000000
     35300      3662  TIP3      OH2            22.4262243317       38.5854943210       22.8054597977  TIP3      3462            0.0000000000
     35301      3662  TIP3      H1             22.4447079147       39.4844855196       23.1365615052  TIP3      3462            0.0000000000
     35302      3662  TIP3      H2             23.3653992175       38.2978004338       22.9607965968  TIP3      3462            0.0000000000
     35303      3663  TIP3      OH2            32.3187872319       38.9220428506       35.1116758810  TIP3      3463            0.0000000000
     35304      3663  TIP3      H1             31.6215782352       39.5857814138       35.0825884674  TIP3      3463            0.0000000000
     35305      3663  TIP3      H2             32.8564108981       39.1908459324       34.3630776613  TIP3      3463            0.0000000000
     35306      3664  TIP3      OH2            19.8402385108       36.4647241904       29.6510690203  TIP3      3464            0.0000000000
     35307      3664  TIP3      H1             19.6487493001       36.4913521322       28.6860101065  TIP3      3464            0.0000000000
     35308      3664  TIP3      H2             19.4182048699       35.6170229777       29.9029625285  TIP3      3464            0.0000000000
     35309      3665  TIP3      OH2            23.4824848254       38.4658062740       33.1933018107  TIP3      3465            0.0000000000
     35310      3665  TIP3      H1             24.0335676746       39.1088713533       32.7084685465  TIP3      3465            0.0000000000
     35311      3665  TIP3      H2             22.5489489849       38.6278935520       32.9296152814  TIP3      3465            0.0000000000
     35312      3666  TIP3      OH2            24.3225925085       36.1461464738       33.8495044926  TIP3      3466            0.0000000000
     35313      3666  TIP3      H1             24.1412155987       37.1085013108       33.7073408160  TIP3      3466            0.0000000000
     35314      3666  TIP3      H2             23.5759596579       35.7989858368       33.3306390319  TIP3      3466            0.0000000000
     35315      3667  TIP3      OH2            28.2019545705       39.4674770658       36.2658474916  TIP3      3467            0.0000000000
     35316      3667  TIP3      H1             27.3541782449       39.7309578333       36.6217045564  TIP3      3467            0.0000000000
     35317      3667  TIP3      H2             28.5917577667       39.1261439829       37.0859859219  TIP3      3467            0.0000000000
     35318      3668  TIP3      OH2            30.0531075106       37.9683098878       38.6571776997  TIP3      3468            0.0000000000
     35319      3668  TIP3      H1             29.7507313821       37.0514249510       38.5111885506  TIP3      3468            0.0000000000
     35320      3668  TIP3      H2             29.5643011290       38.3175202561       39.4166394341  TIP3      3468            0.0000000000
     35321      3669  TIP3      OH2            19.5127797818       39.3002334794       37.6482088375  TIP3      3469            0.0000000000
     35322      3669  TIP3      H1             19.8646321504       38.6782963666       36.9838657039  TIP3      3469            0.0000000000
     35323      3669  TIP3      H2             19.5659525320       38.8693629673       38.5227252679  TIP3      3469            0.0000000000
     35324      3670  TIP3      OH2            24.5524320140       35.6279437955       36.5071794576  TIP3      3470            0.0000000000
     35325      3670  TIP3      H1             25.1963599854       34.8870493172       36.5084131681  TIP3      3470            0.0000000000
     35326      3670  TIP3      H2             24.4135791409       35.7083191601       35.5410192176  TIP3      3470            0.0000000000
     35327      3671  TIP3      OH2            24.9289117204       37.1462816788       38.6395465611  TIP3      3471            0.0000000000
     35328      3671  TIP3      H1             24.7192979888       36.6665054472       37.7996406568  TIP3      3471            0.0000000000
     35329      3671  TIP3      H2             24.3265680279       37.9204589682       38.5554776408  TIP3      3471            0.0000000000
     35330      3672  TIP3      OH2            35.2259463888       36.0583912630       38.5382874644  TIP3      3472            0.0000000000
     35331      3672  TIP3      H1             35.5888159915       35.4035310832       37.9143520850  TIP3      3472            0.0000000000
     35332      3672  TIP3      H2             35.3218847952       36.8917823297       38.0372159961  TIP3      3472            0.0000000000
     35333      3673  TIP3      OH2            32.8482662005       38.0272431019       25.0774099471  TIP3      3473            0.0000000000
     35334      3673  TIP3      H1             33.1536952864       37.5999747387       25.9019387022  TIP3      3473            0.0000000000
     35335      3673  TIP3      H2             32.2883264011       37.3899740663       24.6166918825  TIP3      3473            0.0000000000
     35336      3674  TIP3      OH2            18.3975165008       38.7726405284       29.5616961586  TIP3      3474            0.0000000000
     35337      3674  TIP3      H1             18.8705951312       37.9724957400       29.8774224088  TIP3      3474            0.0000000000
     35338      3674  TIP3      H2             18.6392235767       39.4590647286       30.1772206966  TIP3      3474            0.0000000000
     35339      3675  TIP3      OH2            34.7493811198       38.2274014065       36.8875092402  TIP3      3475            0.0000000000
     35340      3675  TIP3      H1             33.8090640314       38.4879933095       36.8870549702  TIP3      3475            0.0000000000
     35341      3675  TIP3      H2             34.7649792798       37.6283453805       36.1271991618  TIP3      3475            0.0000000000
     35342      3676  TIP3      OH2            17.0606966538       38.1793653119       24.7441699224  TIP3      3476            0.0000000000
     35343      3676  TIP3      H1             16.1002421413       38.2933851954       24.6065690976  TIP3      3476            0.0000000000
     35344      3676  TIP3      H2             17.4214225853       38.6262929468       23.9946550839  TIP3      3476            0.0000000000
     35345      3677  TIP3      OH2            17.0070574352       36.8450315557       33.0158013200  TIP3      3477            0.0000000000
     35346      3677  TIP3      H1             16.3384238880       36.5619095636       33.6716350777  TIP3      3477            0.0000000000
     35347      3677  TIP3      H2             16.5013928543       37.4521217227       32.4441557590  TIP3      3477            0.0000000000
     35348      3678  TIP3      OH2            33.7704193750       36.2907421738       34.7513294957  TIP3      3478            0.0000000000
     35349      3678  TIP3      H1             32.9188248712       36.5557194385       34.3542936699  TIP3      3478            0.0000000000
     35350      3678  TIP3      H2             33.9157292691       35.4445473580       34.2742821930  TIP3      3478            0.0000000000
     35351      3679  TIP3      OH2            27.2087724062       37.6928507015       29.0953604444  TIP3      3479            0.0000000000
     35352      3679  TIP3      H1             26.4634122625       37.1041719342       29.3160624810  TIP3      3479            0.0000000000
     35353      3679  TIP3      H2             27.6880204632       37.1494895340       28.4686934280  TIP3      3479            0.0000000000
     35354      3680  TIP3      OH2            32.2738450055       35.7649779724       29.1045081352  TIP3      3480            0.0000000000
     35355      3680  TIP3      H1             32.9134320545       36.3758512291       28.6570207151  TIP3      3480            0.0000000000
     35356      3680  TIP3      H2             31.4082540701       36.1837788821       28.9217808572  TIP3      3480            0.0000000000
     35357      3681  TIP3      OH2            33.9202701217       36.9855334243       27.3915933348  TIP3      3481            0.0000000000
     35358      3681  TIP3      H1             34.6440738850       36.4376745950       27.0036961521  TIP3      3481            0.0000000000
     35359      3681  TIP3      H2             34.4315234178       37.8183438356       27.5612489488  TIP3      3481            0.0000000000
     35360      3682  TIP3      OH2            19.5301684660       36.3544872036       26.8879069573  TIP3      3482            0.0000000000
     35361      3682  TIP3      H1             18.7182396195       36.1378642294       26.3966549537  TIP3      3482            0.0000000000
     35362      3682  TIP3      H2             19.9837122831       35.4866405579       26.8501909325  TIP3      3482            0.0000000000
     35363      3683  TIP3      OH2            23.9952532231       36.2471070232       26.6762198152  TIP3      3483            0.0000000000
     35364      3683  TIP3      H1             24.8827659837       36.6362704186       26.6245053386  TIP3      3483            0.0000000000
     35365      3683  TIP3      H2             23.9420436712       36.0691495814       27.6170625328  TIP3      3483            0.0000000000
     35366      3684  TIP3      OH2            29.7453086292       36.2542065172       28.2856392095  TIP3      3484            0.0000000000
     35367      3684  TIP3      H1             29.5435299788       36.4788274189       27.3853465977  TIP3      3484            0.0000000000
     35368      3684  TIP3      H2             29.2571924268       35.4152990959       28.4943895906  TIP3      3484            0.0000000000
     35369      3685  TIP3      OH2            30.8824411359       36.3499262126       24.1202018024  TIP3      3485            0.0000000000
     35370      3685  TIP3      H1             30.2247365031       36.9376513670       23.7192735121  TIP3      3485            0.0000000000
     35371      3685  TIP3      H2             30.4814669560       35.4730511176       23.9319168016  TIP3      3485            0.0000000000
     35372      3686  TIP3      OH2            20.1255333605       38.0409690565       21.1595542072  TIP3      3486            0.0000000000
     35373      3686  TIP3      H1             20.6484537753       37.4403830446       20.6025202816  TIP3      3486            0.0000000000
     35374      3686  TIP3      H2             20.8375657485       38.2707863607       21.7813438509  TIP3      3486            0.0000000000
     35375      3687  TIP3      OH2            25.0033334225       38.3494952819       23.6796607435  TIP3      3487            0.0000000000
     35376      3687  TIP3      H1             25.4174249333       37.6982958782       24.2664190955  TIP3      3487            0.0000000000
     35377      3687  TIP3      H2             25.2074706684       39.1905388438       24.0918289151  TIP3      3487            0.0000000000
     35378      3688  TIP3      OH2            19.3803405753       36.8791578059       36.3644945149  TIP3      3488            0.0000000000
     35379      3688  TIP3      H1             19.0068057381       36.0796203898       36.7801224101  TIP3      3488            0.0000000000
     35380      3688  TIP3      H2             20.2922146921       36.8426482310       36.7311576944  TIP3      3488            0.0000000000
     35381      3689  TIP3      OH2            21.4212137853       36.2610160109       38.0123723136  TIP3      3489            0.0000000000
     35382      3689  TIP3      H1             22.2984674239       35.8935504389       37.7813388230  TIP3      3489            0.0000000000
     35383      3689  TIP3      H2             21.0279479564       35.4629002468       38.4149640490  TIP3      3489            0.0000000000
     35384      3690  TIP3      OH2            29.7926781363       35.4822445276       38.1291456818  TIP3      3490            0.0000000000
     35385      3690  TIP3      H1             29.9091242259       35.0810308351       39.0091277779  TIP3      3490            0.0000000000
     35386      3690  TIP3      H2             30.7204003408       35.5313757542       37.8132320560  TIP3      3490            0.0000000000
     35387      3691  TIP3      OH2            35.6018026134       39.1294683583       27.4153970842  TIP3      3491            0.0000000000
     35388      3691  TIP3      H1             36.2808142371       39.1131894632       28.1286666178  TIP3      3491            0.0000000000
     35389      3691  TIP3      H2             36.0795589250       38.7761176228       26.6425109542  TIP3      3491            0.0000000000
     35390      3692  TIP3      OH2            38.1035846059       39.3170793612       34.2758335901  TIP3      3492            0.0000000000
     35391      3692  TIP3      H1             37.2078951569       39.6687186735       34.1760970613  TIP3      3492            0.0000000000
     35392      3692  TIP3      H2             37.9816289300       38.4757679364       34.7304691571  TIP3      3492            0.0000000000
     35393      3693  TIP3      OH2            38.6717521280       36.4744180810       29.6700217856  TIP3      3493            0.0000000000
     35394      3693  TIP3      H1             38.4787133591       36.5256917960       28.7070928472  TIP3      3493            0.0000000000
     35395      3693  TIP3      H2             38.2818074244       35.6295258444       29.9305857611  TIP3      3493            0.0000000000
     35396      3694  TIP3      OH2            38.7371787557       39.4058594601       37.7180939055  TIP3      3494            0.0000000000
     35397      3694  TIP3      H1             38.7188233628       38.7424652164       37.0007498008  TIP3      3494            0.0000000000
     35398      3694  TIP3      H2             38.4576393073       38.9131441821       38.5120133319  TIP3      3494            0.0000000000
     35399      3695  TIP3      OH2            37.2055645062       38.7759791639       29.5929504914  TIP3      3495            0.0000000000
     35400      3695  TIP3      H1             37.7355609828       37.9787241754       29.8174984091  TIP3      3495            0.0000000000
     35401      3695  TIP3      H2             37.5420757535       39.4598743485       30.1704315875  TIP3      3495            0.0000000000
     35402      3696  TIP3      OH2            35.9526578989       38.1505401203       24.7117804794  TIP3      3496            0.0000000000
     35403      3696  TIP3      H1             34.9998176950       38.3290469018       24.5844977854  TIP3      3496            0.0000000000
     35404      3696  TIP3      H2             36.3371430043       38.6614632774       23.9990664037  TIP3      3496            0.0000000000
     35405      3697  TIP3      OH2            35.8892536664       36.8521822245       33.0514334855  TIP3      3497            0.0000000000
     35406      3697  TIP3      H1             35.1872028146       36.5538264516       33.6635423086  TIP3      3497            0.0000000000
     35407      3697  TIP3      H2             35.3982847738       37.4409837440       32.4395363147  TIP3      3497            0.0000000000
     35408      3698  TIP3      OH2            38.0416277666       36.3730866995       27.0599478534  TIP3      3498            0.0000000000
     35409      3698  TIP3      H1             37.4402572732       36.1615475278       26.3312718788  TIP3      3498            0.0000000000
     35410      3698  TIP3      H2             38.7767991245       35.7570228548       26.9146786071  TIP3      3498            0.0000000000
     35411      3699  TIP3      OH2            37.1878826012       36.1104205021       22.6629922368  TIP3      3499            0.0000000000
     35412      3699  TIP3      H1             37.5843317604       36.8075422781       22.1171200839  TIP3      3499            0.0000000000
     35413      3699  TIP3      H2             36.5174511989       36.6118707414       23.1655191282  TIP3      3499            0.0000000000
     35414      3700  TIP3      OH2            39.0717905067       38.0971812987       21.3287450114  TIP3      3500            0.0000000000
     35415      3700  TIP3      H1             39.6224186730       37.5987357858       20.6905779783  TIP3      3500            0.0000000000
     35416      3700  TIP3      H2             39.7761625822       38.4912043384       21.8474276767  TIP3      3500            0.0000000000
     35417      3701  TIP3      OH2            38.3030731079       36.9162691500       36.4537865656  TIP3      3501            0.0000000000
     35418      3701  TIP3      H1             37.9313372502       36.0814131589       36.8114023994  TIP3      3501            0.0000000000
     35419      3701  TIP3      H2             39.2451708385       36.8437137557       36.6662706034  TIP3      3501            0.0000000000
     35420      3702  TIP3      OH2           -27.9699494599      -29.9538105954       45.6299004609  TIP3      3502            0.0000000000
     35421      3702  TIP3      H1            -27.9694548435      -28.9712838206       45.6005650640  TIP3      3502            0.0000000000
     35422      3702  TIP3      H2            -28.6950499731      -30.1766975469       45.0243493307  TIP3      3502            0.0000000000
     35423      3703  TIP3      OH2           -29.0887895968      -30.6891431758       49.1357571507  TIP3      3503            0.0000000000
     35424      3703  TIP3      H1            -29.1598192265      -31.3359730938       49.8632743876  TIP3      3503            0.0000000000
     35425      3703  TIP3      H2            -29.4034812006      -31.1618078024       48.3567016663  TIP3      3503            0.0000000000
     35426      3704  TIP3      OH2           -25.5139045231      -27.7826996841       47.3516467896  TIP3      3504            0.0000000000
     35427      3704  TIP3      H1            -25.8518785481      -28.5021302842       47.9125754609  TIP3      3504            0.0000000000
     35428      3704  TIP3      H2            -25.3735955237      -27.0942143295       48.0589528450  TIP3      3504            0.0000000000
     35429      3705  TIP3      OH2           -35.8465808775      -26.5052012980       49.0622085506  TIP3      3505            0.0000000000
     35430      3705  TIP3      H1            -36.1305030445      -27.4135643072       48.8575012126  TIP3      3505            0.0000000000
     35431      3705  TIP3      H2            -34.8987727510      -26.7141503860       49.2194681011  TIP3      3505            0.0000000000
     35432      3706  TIP3      OH2           -39.0875338110      -32.9332854230       44.5037553537  TIP3      3506            0.0000000000
     35433      3706  TIP3      H1            -39.5952260249      -32.1224189519       44.6357346559  TIP3      3506            0.0000000000
     35434      3706  TIP3      H2            -39.7957195765      -33.5594436192       44.2590802632  TIP3      3506            0.0000000000
     35435      3707  TIP3      OH2           -38.4594069314      -30.7643244476       46.8069610604  TIP3      3507            0.0000000000
     35436      3707  TIP3      H1            -38.2486322493      -31.6014787554       47.2515184737  TIP3      3507            0.0000000000
     35437      3707  TIP3      H2            -37.7467702945      -30.6755916993       46.1578706581  TIP3      3507            0.0000000000
     35438      3708  TIP3      OH2           -28.2990613611      -22.5729225167       47.6896468907  TIP3      3508            0.0000000000
     35439      3708  TIP3      H1            -27.6503405284      -23.2478149482       47.3649319530  TIP3      3508            0.0000000000
     35440      3708  TIP3      H2            -28.4930335707      -22.9167574643       48.5616134753  TIP3      3508            0.0000000000
     35441      3709  TIP3      OH2           -30.6770750751      -28.2325075679       49.5635995754  TIP3      3509            0.0000000000
     35442      3709  TIP3      H1            -30.3377418556      -28.9234194954       48.9723165279  TIP3      3509            0.0000000000
     35443      3709  TIP3      H2            -29.9236159625      -28.1627056937       50.1575779946  TIP3      3509            0.0000000000
     35444      3710  TIP3      OH2           -27.5155991363      -33.8332944990       49.9010311069  TIP3      3510            0.0000000000
     35445      3710  TIP3      H1            -27.3891384437      -34.8012003652       49.8924067647  TIP3      3510            0.0000000000
     35446      3710  TIP3      H2            -27.6430788227      -33.6726155580       48.9406219658  TIP3      3510            0.0000000000
     35447      3711  TIP3      OH2           -34.4542013396      -35.7241803923       47.1113325978  TIP3      3511            0.0000000000
     35448      3711  TIP3      H1            -34.3360233882      -34.8824926492       46.6264469553  TIP3      3511            0.0000000000
     35449      3711  TIP3      H2            -34.8352920016      -36.3079037547       46.4183723110  TIP3      3511            0.0000000000
     35450      3712  TIP3      OH2           -26.7015857508      -35.6926650709       45.4307778309  TIP3      3512            0.0000000000
     35451      3712  TIP3      H1            -26.0953043489      -35.9640045803       46.1637927262  TIP3      3512            0.0000000000
     35452      3712  TIP3      H2            -26.1370151651      -35.0570523470       44.9735933483  TIP3      3512            0.0000000000
     35453      3713  TIP3      OH2           -37.8233812528      -33.3672960237       47.8655615243  TIP3      3513            0.0000000000
     35454      3713  TIP3      H1            -37.1380436100      -33.9027502173       48.3072535104  TIP3      3513            0.0000000000
     35455      3713  TIP3      H2            -37.7255116509      -33.6503946903       46.9429439627  TIP3      3513            0.0000000000
     35456      3714  TIP3      OH2           -32.6640920724      -31.7884352395       47.1597564366  TIP3      3514            0.0000000000
     35457      3714  TIP3      H1            -31.9911334115      -32.3692647537       47.5646711055  TIP3      3514            0.0000000000
     35458      3714  TIP3      H2            -33.1870354604      -32.4340781382       46.6438936218  TIP3      3514            0.0000000000
     35459      3715  TIP3      OH2           -28.2692606659      -27.3549118959       44.7363239986  TIP3      3515            0.0000000000
     35460      3715  TIP3      H1            -28.5065665566      -27.6303221686       43.8430374972  TIP3      3515            0.0000000000
     35461      3715  TIP3      H2            -28.5564899562      -26.4164149182       44.7791956153  TIP3      3515            0.0000000000
     35462      3716  TIP3      OH2           -25.0062280461      -36.2586262682       47.4924603818  TIP3      3516            0.0000000000
     35463      3716  TIP3      H1            -25.0698384764      -37.0806179372       48.0174604032  TIP3      3516            0.0000000000
     35464      3716  TIP3      H2            -24.2692378086      -35.8698401273       47.9984502082  TIP3      3516            0.0000000000
     35465      3717  TIP3      OH2           -35.9628594529      -34.9937673768       49.1453436401  TIP3      3517            0.0000000000
     35466      3717  TIP3      H1            -35.4235156910      -34.2692037224       49.4686189998  TIP3      3517            0.0000000000
     35467      3717  TIP3      H2            -35.4244563842      -35.3970904611       48.4302332380  TIP3      3517            0.0000000000
     35468      3718  TIP3      OH2           -38.4310772528      -27.5265498363       42.9623377931  TIP3      3518            0.0000000000
     35469      3718  TIP3      H1            -38.7875375957      -27.2130828369       42.1364930244  TIP3      3518            0.0000000000
     35470      3718  TIP3      H2            -38.4473799665      -26.7380677203       43.5298952492  TIP3      3518            0.0000000000
     35471      3719  TIP3      OH2           -24.8403708848      -26.1890410733       49.2784935187  TIP3      3519            0.0000000000
     35472      3719  TIP3      H1            -25.6283982887      -26.0758093418       49.8526255626  TIP3      3519            0.0000000000
     35473      3719  TIP3      H2            -24.4817250946      -25.3142924368       49.4595898340  TIP3      3519            0.0000000000
     35474      3720  TIP3      OH2           -31.4935160321      -39.4082415752       48.6220048839  TIP3      3520            0.0000000000
     35475      3720  TIP3      H1            -31.6378600242      -40.3612595743       48.7557511818  TIP3      3520            0.0000000000
     35476      3720  TIP3      H2            -32.3618707823      -39.1359709925       48.9588903338  TIP3      3520            0.0000000000
     35477      3721  TIP3      OH2           -26.6660253891      -24.1134894921       46.3494187003  TIP3      3521            0.0000000000
     35478      3721  TIP3      H1            -26.2150752955      -24.8340045713       45.8563457119  TIP3      3521            0.0000000000
     35479      3721  TIP3      H2            -26.2084727013      -23.3221596340       45.9941059733  TIP3      3521            0.0000000000
     35480      3722  TIP3      OH2           -25.4242104481      -26.1661651987       44.9126404881  TIP3      3522            0.0000000000
     35481      3722  TIP3      H1            -25.7180432208      -26.8752001756       44.3156135077  TIP3      3522            0.0000000000
     35482      3722  TIP3      H2            -25.3836979010      -26.6668457389       45.7496919985  TIP3      3522            0.0000000000
     35483      3723  TIP3      OH2           -29.3035200414      -30.7196732665       43.1417678538  TIP3      3523            0.0000000000
     35484      3723  TIP3      H1            -29.9986963506      -30.1367134576       42.7824149584  TIP3      3523            0.0000000000
     35485      3723  TIP3      H2            -28.5963078107      -30.6098192678       42.4770759028  TIP3      3523            0.0000000000
     35486      3724  TIP3      OH2           -29.2254130178      -32.1389380954       40.1503173391  TIP3      3524            0.0000000000
     35487      3724  TIP3      H1            -28.5177392911      -32.1528262577       40.8129202824  TIP3      3524            0.0000000000
     35488      3724  TIP3      H2            -28.9189936389      -32.8572786925       39.5817928115  TIP3      3524            0.0000000000
     35489      3725  TIP3      OH2           -25.8560788348      -30.5102884250       44.0457154043  TIP3      3525            0.0000000000
     35490      3725  TIP3      H1            -26.6011637077      -30.2590035258       44.6460998061  TIP3      3525            0.0000000000
     35491      3725  TIP3      H2            -25.3880890726      -31.1788009318       44.5710169774  TIP3      3525            0.0000000000
     35492      3726  TIP3      OH2           -34.2529528443      -29.8337506320       45.9830552382  TIP3      3526            0.0000000000
     35493      3726  TIP3      H1            -34.5822615975      -30.2201468345       45.1366643263  TIP3      3526            0.0000000000
     35494      3726  TIP3      H2            -33.6188406632      -30.5201033413       46.2761992090  TIP3      3526            0.0000000000
     35495      3727  TIP3      OH2           -32.8395965327      -26.3868009889       48.6128118682  TIP3      3527            0.0000000000
     35496      3727  TIP3      H1            -32.9209576130      -26.9696530864       47.8461240733  TIP3      3527            0.0000000000
     35497      3727  TIP3      H2            -32.1362389994      -26.8216526343       49.1252889098  TIP3      3527            0.0000000000
     35498      3728  TIP3      OH2           -34.0422145663      -30.9954945350       49.4858045802  TIP3      3528            0.0000000000
     35499      3728  TIP3      H1            -33.3932549054      -30.9428268972       48.7684470712  TIP3      3528            0.0000000000
     35500      3728  TIP3      H2            -33.5753541368      -30.5481584373       50.2067675803  TIP3      3528            0.0000000000
     35501      3729  TIP3      OH2           -26.9761237237      -31.2977350592       41.7278793050  TIP3      3529            0.0000000000
     35502      3729  TIP3      H1            -26.4248899227      -31.1141470333       42.5325159817  TIP3      3529            0.0000000000
     35503      3729  TIP3      H2            -26.5275386793      -30.8004968155       41.0063594271  TIP3      3529            0.0000000000
     35504      3730  TIP3      OH2           -29.2725421875      -24.5885789564       45.1838107161  TIP3      3530            0.0000000000
     35505      3730  TIP3      H1            -28.8373971475      -24.2759911392       45.9857230257  TIP3      3530            0.0000000000
     35506      3730  TIP3      H2            -29.8293511543      -23.8343844170       44.9521806291  TIP3      3530            0.0000000000
     35507      3731  TIP3      OH2           -23.2671370806      -39.5425941974       41.6339338662  TIP3      3531            0.0000000000
     35508      3731  TIP3      H1            -24.1882603030      -39.4242328075       41.9111991132  TIP3      3531            0.0000000000
     35509      3731  TIP3      H2            -23.0547638483      -38.7261843231       41.1654693414  TIP3      3531            0.0000000000
     35510      3732  TIP3      OH2           -35.2710184658      -30.8171322441       43.5900585554  TIP3      3532            0.0000000000
     35511      3732  TIP3      H1            -35.5770887512      -30.0372568784       43.0788351739  TIP3      3532            0.0000000000
     35512      3732  TIP3      H2            -35.9293243312      -31.4786340632       43.3697577591  TIP3      3532            0.0000000000
     35513      3733  TIP3      OH2           -22.1369660099      -25.2194418902       39.9931163572  TIP3      3533            0.0000000000
     35514      3733  TIP3      H1            -21.9876851425      -24.2718725891       40.1485938317  TIP3      3533            0.0000000000
     35515      3733  TIP3      H2            -21.2186949605      -25.5324250078       39.9733505353  TIP3      3533            0.0000000000
     35516      3734  TIP3      OH2           -38.9491767209      -25.0336222240       49.0185712959  TIP3      3534            0.0000000000
     35517      3734  TIP3      H1            -38.3198802423      -25.6989313333       49.3354899336  TIP3      3534            0.0000000000
     35518      3734  TIP3      H2            -39.4807622155      -24.8961038826       49.8048933466  TIP3      3534            0.0000000000
     35519      3735  TIP3      OH2           -29.7860476659      -21.6646460664       43.6114547142  TIP3      3535            0.0000000000
     35520      3735  TIP3      H1            -29.8992964791      -21.7412083408       42.6475789584  TIP3      3535            0.0000000000
     35521      3735  TIP3      H2            -29.7868460738      -20.7029344130       43.7666105651  TIP3      3535            0.0000000000
     35522      3736  TIP3      OH2           -36.1513863939      -22.7886127373       45.4099184888  TIP3      3536            0.0000000000
     35523      3736  TIP3      H1            -35.9863435977      -23.1977243455       46.2903418729  TIP3      3536            0.0000000000
     35524      3736  TIP3      H2            -36.9985325644      -23.1990457449       45.1912359247  TIP3      3536            0.0000000000
     35525      3737  TIP3      OH2           -26.7329377150      -22.4495241082       40.5864877326  TIP3      3537            0.0000000000
     35526      3737  TIP3      H1            -26.2765716480      -23.2075900178       40.1587344116  TIP3      3537            0.0000000000
     35527      3737  TIP3      H2            -26.6954525660      -22.7062317943       41.5357019254  TIP3      3537            0.0000000000
     35528      3738  TIP3      OH2           -27.0381981789      -22.5167970741       43.3692424889  TIP3      3538            0.0000000000
     35529      3738  TIP3      H1            -28.0005624470      -22.4406047975       43.5400175751  TIP3      3538            0.0000000000
     35530      3738  TIP3      H2            -26.8059552287      -23.2592528534       43.9484143520  TIP3      3538            0.0000000000
     35531      3739  TIP3      OH2           -34.3022259869      -38.5125222696       49.3984412690  TIP3      3539            0.0000000000
     35532      3739  TIP3      H1            -35.1696107574      -38.6385655845       48.9388809839  TIP3      3539            0.0000000000
     35533      3739  TIP3      H2            -34.3434441910      -37.6494267709       49.8085754517  TIP3      3539            0.0000000000
     35534      3740  TIP3      OH2           -25.5296245980      -30.2710882563       39.5501503645  TIP3      3540            0.0000000000
     35535      3740  TIP3      H1            -25.5567799056      -30.4527636571       38.5827299511  TIP3      3540            0.0000000000
     35536      3740  TIP3      H2            -24.6754562431      -29.8199210036       39.5943580179  TIP3      3540            0.0000000000
     35537      3741  TIP3      OH2           -29.9144638749      -36.3722690346       40.0680887602  TIP3      3541            0.0000000000
     35538      3741  TIP3      H1            -30.2484421612      -36.4226567545       40.9777507330  TIP3      3541            0.0000000000
     35539      3741  TIP3      H2            -30.2523449986      -37.2330022135       39.7452036521  TIP3      3541            0.0000000000
     35540      3742  TIP3      OH2           -34.1578007146      -33.5091633032       45.4761791723  TIP3      3542            0.0000000000
     35541      3742  TIP3      H1            -35.0979009072      -33.7487762276       45.3497215705  TIP3      3542            0.0000000000
     35542      3742  TIP3      H2            -33.7921097583      -33.7839804028       44.6128465999  TIP3      3542            0.0000000000
     35543      3743  TIP3      OH2           -28.6417787063      -33.0060465216       44.2618300408  TIP3      3543            0.0000000000
     35544      3743  TIP3      H1            -29.0271733533      -32.1693687634       43.9148695229  TIP3      3543            0.0000000000
     35545      3743  TIP3      H2            -27.9454405814      -33.1745760095       43.6053957330  TIP3      3543            0.0000000000
     35546      3744  TIP3      OH2           -27.6214451701      -33.5334073203       47.1188639743  TIP3      3544            0.0000000000
     35547      3744  TIP3      H1            -27.8614228890      -32.9537166868       46.3706572587  TIP3      3544            0.0000000000
     35548      3744  TIP3      H2            -27.4859108099      -34.3723234976       46.6317772751  TIP3      3544            0.0000000000
     35549      3745  TIP3      OH2           -33.1341213901      -35.9356010411       39.1711796699  TIP3      3545            0.0000000000
     35550      3745  TIP3      H1            -33.5763002725      -36.3936475402       39.9138730373  TIP3      3545            0.0000000000
     35551      3745  TIP3      H2            -33.8579037252      -35.5602512644       38.6572791701  TIP3      3545            0.0000000000
     35552      3746  TIP3      OH2           -39.8304073055      -36.2728548352       46.1986819496  TIP3      3546            0.0000000000
     35553      3746  TIP3      H1            -39.2064936882      -36.3258740664       46.9487473470  TIP3      3546            0.0000000000
     35554      3746  TIP3      H2            -39.3816628643      -36.7374529256       45.4895656385  TIP3      3546            0.0000000000
     35555      3747  TIP3      OH2           -38.5655955231      -35.5013203423       41.6935168088  TIP3      3547            0.0000000000
     35556      3747  TIP3      H1            -38.0473471938      -34.9254892754       41.0894160043  TIP3      3547            0.0000000000
     35557      3747  TIP3      H2            -39.2619929287      -34.9151468528       41.9992108529  TIP3      3547            0.0000000000
     35558      3748  TIP3      OH2           -31.6013228063      -35.9336787243       46.5174032292  TIP3      3548            0.0000000000
     35559      3748  TIP3      H1            -32.5372018609      -35.9935135301       46.7987638554  TIP3      3548            0.0000000000
     35560      3748  TIP3      H2            -31.1146868749      -36.1329943004       47.3297574692  TIP3      3548            0.0000000000
     35561      3749  TIP3      OH2           -36.7715889360      -34.4114052612       45.3806396317  TIP3      3549            0.0000000000
     35562      3749  TIP3      H1            -37.6512016363      -34.2472344449       45.0023702121  TIP3      3549            0.0000000000
     35563      3749  TIP3      H2            -36.5105050725      -35.2575764897       44.9790643409  TIP3      3549            0.0000000000
     35564      3750  TIP3      OH2           -33.1498997951      -34.3599289996       43.0049429406  TIP3      3550            0.0000000000
     35565      3750  TIP3      H1            -32.1927489640      -34.2491971553       43.1595884206  TIP3      3550            0.0000000000
     35566      3750  TIP3      H2            -33.3874354503      -33.6750598637       42.3506080989  TIP3      3550            0.0000000000
     35567      3751  TIP3      OH2           -27.1947500119      -36.7690452913       49.6264479895  TIP3      3551            0.0000000000
     35568      3751  TIP3      H1            -27.7991435686      -36.6734074924       50.3815712706  TIP3      3551            0.0000000000
     35569      3751  TIP3      H2            -27.7932870822      -37.0371028301       48.9174724648  TIP3      3551            0.0000000000
     35570      3752  TIP3      OH2           -34.4501053481      -33.1774853072       40.5858900943  TIP3      3552            0.0000000000
     35571      3752  TIP3      H1            -34.9786116090      -33.5615100707       39.8647393959  TIP3      3552            0.0000000000
     35572      3752  TIP3      H2            -33.6270691861      -32.9709378143       40.1155296652  TIP3      3552            0.0000000000
     35573      3753  TIP3      OH2           -30.3553134464      -33.2463243194       48.3907579198  TIP3      3553            0.0000000000
     35574      3753  TIP3      H1            -29.7228305335      -33.7461375813       47.8451358201  TIP3      3553            0.0000000000
     35575      3753  TIP3      H2            -30.4215477912      -33.7908511013       49.1817608972  TIP3      3553            0.0000000000
     35576      3754  TIP3      OH2           -35.3151367251      -37.0764871182       44.8567447441  TIP3      3554            0.0000000000
     35577      3754  TIP3      H1            -35.6533775690      -37.9858536897       44.8137755873  TIP3      3554            0.0000000000
     35578      3754  TIP3      H2            -34.5322031935      -37.1388753892       44.2886006491  TIP3      3554            0.0000000000
     35579      3755  TIP3      OH2           -31.0952193405      -28.6499127601       42.5143184346  TIP3      3555            0.0000000000
     35580      3755  TIP3      H1            -31.8952386152      -29.1119363491       42.1759683275  TIP3      3555            0.0000000000
     35581      3755  TIP3      H2            -31.3239979462      -28.5187880822       43.4564087258  TIP3      3555            0.0000000000
     35582      3756  TIP3      OH2           -27.2757020169      -35.8504413049       40.7351736967  TIP3      3556            0.0000000000
     35583      3756  TIP3      H1            -28.2174723227      -35.6718806577       40.5490818782  TIP3      3556            0.0000000000
     35584      3756  TIP3      H2            -26.9219187581      -34.9832047389       41.0314646889  TIP3      3556            0.0000000000
     35585      3757  TIP3      OH2           -26.5284999281      -33.9142808228       42.2992400274  TIP3      3557            0.0000000000
     35586      3757  TIP3      H1            -25.6504003501      -34.0243334028       42.7193641253  TIP3      3557            0.0000000000
     35587      3757  TIP3      H2            -26.4291703831      -33.0835732462       41.8043418019  TIP3      3557            0.0000000000
     35588      3758  TIP3      OH2           -36.0911537420      -29.3006957869       48.2587063739  TIP3      3558            0.0000000000
     35589      3758  TIP3      H1            -35.3385152977      -29.3052852296       47.6426593540  TIP3      3558            0.0000000000
     35590      3758  TIP3      H2            -35.9041890439      -30.1180678690       48.7365002523  TIP3      3558            0.0000000000
     35591      3759  TIP3      OH2           -29.0014872130      -27.1766414930       41.5392646892  TIP3      3559            0.0000000000
     35592      3759  TIP3      H1            -29.3423683900      -26.3320385981       41.9006705960  TIP3      3559            0.0000000000
     35593      3759  TIP3      H2            -29.7282480016      -27.7955232990       41.7676234106  TIP3      3559            0.0000000000
     35594      3760  TIP3      OH2           -21.6334379606      -33.7706221172       42.0887688622  TIP3      3560            0.0000000000
     35595      3760  TIP3      H1            -22.1902079637      -34.0698153349       41.3441158834  TIP3      3560            0.0000000000
     35596      3760  TIP3      H2            -21.5540401847      -32.8232281167       41.8326923300  TIP3      3560            0.0000000000
     35597      3761  TIP3      OH2           -23.3766070452      -24.9430230709       42.4847299983  TIP3      3561            0.0000000000
     35598      3761  TIP3      H1            -23.7048777865      -25.7785992213       42.8341314408  TIP3      3561            0.0000000000
     35599      3761  TIP3      H2            -23.0330344602      -25.1655673932       41.6051549223  TIP3      3561            0.0000000000
     35600      3762  TIP3      OH2           -26.4493832698      -30.0545335850       48.8806470864  TIP3      3562            0.0000000000
     35601      3762  TIP3      H1            -27.2183844884      -30.2710515809       49.4510344540  TIP3      3562            0.0000000000
     35602      3762  TIP3      H2            -25.9291349435      -30.8861768715       48.8686370555  TIP3      3562            0.0000000000
     35603      3763  TIP3      OH2           -33.6235573150      -25.7881500576       45.7247989531  TIP3      3563            0.0000000000
     35604      3763  TIP3      H1            -33.1166974431      -24.9890738805       45.5019931744  TIP3      3563            0.0000000000
     35605      3763  TIP3      H2            -34.5019914656      -25.5605542996       45.3927072265  TIP3      3563            0.0000000000
     35606      3764  TIP3      OH2           -37.9157178694      -30.9440032192       40.2649805656  TIP3      3564            0.0000000000
     35607      3764  TIP3      H1            -37.2777518615      -30.3067644675       40.6503895116  TIP3      3564            0.0000000000
     35608      3764  TIP3      H2            -38.7554566625      -30.5781484584       40.5604627764  TIP3      3564            0.0000000000
     35609      3765  TIP3      OH2           -32.2058574351      -28.1224714645       45.1888225053  TIP3      3565            0.0000000000
     35610      3765  TIP3      H1            -32.5133920093      -27.2051589920       45.3178168317  TIP3      3565            0.0000000000
     35611      3765  TIP3      H2            -32.9192318167      -28.6161138787       45.6345623200  TIP3      3565            0.0000000000
     35612      3766  TIP3      OH2           -33.5069316312      -23.1242185744       44.7252187026  TIP3      3566            0.0000000000
     35613      3766  TIP3      H1            -34.4737284649      -22.9971705596       44.8687631581  TIP3      3566            0.0000000000
     35614      3766  TIP3      H2            -33.1522146581      -22.2971227930       45.1007760652  TIP3      3566            0.0000000000
     35615      3767  TIP3      OH2           -25.8819471329      -26.8693574194       40.3324002558  TIP3      3567            0.0000000000
     35616      3767  TIP3      H1            -25.5891817002      -27.3457031071       41.1353452305  TIP3      3567            0.0000000000
     35617      3767  TIP3      H2            -26.8357233421      -27.0553165283       40.4112429685  TIP3      3567            0.0000000000
     35618      3768  TIP3      OH2           -21.4049866251      -22.5167117283       40.5974067406  TIP3      3568            0.0000000000
     35619      3768  TIP3      H1            -20.7454926981      -21.8326567256       40.3716397713  TIP3      3568            0.0000000000
     35620      3768  TIP3      H2            -22.1416863901      -21.9198087116       40.8666824497  TIP3      3568            0.0000000000
     35621      3769  TIP3      OH2           -25.1097548483      -28.2415099575       42.5780957097  TIP3      3569            0.0000000000
     35622      3769  TIP3      H1            -25.3478806003      -29.0240854210       43.1246880418  TIP3      3569            0.0000000000
     35623      3769  TIP3      H2            -24.1565148539      -28.1966314676       42.7516026994  TIP3      3569            0.0000000000
     35624      3770  TIP3      OH2           -31.7718273797      -25.7997767004       38.8276794900  TIP3      3570            0.0000000000
     35625      3770  TIP3      H1            -31.6575502929      -26.5649324378       38.2413299619  TIP3      3570            0.0000000000
     35626      3770  TIP3      H2            -32.2019897945      -26.2340782125       39.5955149765  TIP3      3570            0.0000000000
     35627      3771  TIP3      OH2           -32.9951452943      -26.2769890633       41.2705047978  TIP3      3571            0.0000000000
     35628      3771  TIP3      H1            -32.7361709504      -26.7901992036       42.0443342291  TIP3      3571            0.0000000000
     35629      3771  TIP3      H2            -32.9145052536      -25.3505027843       41.5963769357  TIP3      3571            0.0000000000
     35630      3772  TIP3      OH2           -36.4860735241      -29.0333003854       41.7266131928  TIP3      3572            0.0000000000
     35631      3772  TIP3      H1            -37.1711511227      -28.6477210525       42.3172539188  TIP3      3572            0.0000000000
     35632      3772  TIP3      H2            -35.9469937547      -28.2558775950       41.4857692663  TIP3      3572            0.0000000000
     35633      3773  TIP3      OH2           -27.7762999179      -36.8232122431       43.1940632802  TIP3      3573            0.0000000000
     35634      3773  TIP3      H1            -27.6548636606      -36.2922881584       42.3751288315  TIP3      3573            0.0000000000
     35635      3773  TIP3      H2            -27.2973270506      -36.2737963127       43.8398630307  TIP3      3573            0.0000000000
     35636      3774  TIP3      OH2           -30.1839718327      -24.6143307866       41.9706922277  TIP3      3574            0.0000000000
     35637      3774  TIP3      H1            -30.9985739495      -24.0791786523       42.0468412423  TIP3      3574            0.0000000000
     35638      3774  TIP3      H2            -29.6410439467      -24.0606569916       41.3900528694  TIP3      3574            0.0000000000
     35639      3775  TIP3      OH2           -30.6276265932      -35.0331965857       43.9803505040  TIP3      3575            0.0000000000
     35640      3775  TIP3      H1            -29.8569554214      -34.4376754522       44.0372778781  TIP3      3575            0.0000000000
     35641      3775  TIP3      H2            -30.9015382820      -35.1362413867       44.9083146186  TIP3      3575            0.0000000000
     35642      3776  TIP3      OH2           -29.8206572955      -37.9659444919       44.9356810731  TIP3      3576            0.0000000000
     35643      3776  TIP3      H1            -30.1360093993      -37.2832305842       45.5491043998  TIP3      3576            0.0000000000
     35644      3776  TIP3      H2            -29.1357571588      -37.4577670335       44.4394634081  TIP3      3576            0.0000000000
     35645      3777  TIP3      OH2           -32.7807702902      -23.5820681036       42.0015287933  TIP3      3577            0.0000000000
     35646      3777  TIP3      H1            -32.6854243917      -22.7648856482       41.4533487066  TIP3      3577            0.0000000000
     35647      3777  TIP3      H2            -33.0447225045      -23.2115337961       42.8746864801  TIP3      3577            0.0000000000
     35648      3778  TIP3      OH2           -34.1514834346      -36.8146618222       41.5648842150  TIP3      3578            0.0000000000
     35649      3778  TIP3      H1            -34.1826889562      -35.9242108771       41.9643415616  TIP3      3578            0.0000000000
     35650      3778  TIP3      H2            -33.2460331474      -37.0759961429       41.8312592567  TIP3      3578            0.0000000000
     35651      3779  TIP3      OH2           -25.3324867010      -32.2867701853       47.9628080576  TIP3      3579            0.0000000000
     35652      3779  TIP3      H1            -26.1473581973      -32.7720623793       47.7564262069  TIP3      3579            0.0000000000
     35653      3779  TIP3      H2            -24.8363183015      -32.9835063002       48.4608253170  TIP3      3579            0.0000000000
     35654      3780  TIP3      OH2           -35.8376536411      -26.3998798812       40.6271766287  TIP3      3580            0.0000000000
     35655      3780  TIP3      H1            -35.1798594285      -25.7690392914       40.9324400472  TIP3      3580            0.0000000000
     35656      3780  TIP3      H2            -35.3283423275      -26.8703440657       39.9369802333  TIP3      3580            0.0000000000
     35657      3781  TIP3      OH2           -37.5588850596      -33.7486434049       39.7799267459  TIP3      3581            0.0000000000
     35658      3781  TIP3      H1            -37.5394086214      -32.7905082373       39.9695476813  TIP3      3581            0.0000000000
     35659      3781  TIP3      H2            -38.4457038645      -33.9025189277       39.4590897963  TIP3      3581            0.0000000000
     35660      3782  TIP3      OH2           -23.9387287576      -22.8371552955       49.6026111890  TIP3      3582            0.0000000000
     35661      3782  TIP3      H1            -24.1157026948      -22.1888683447       48.8821245360  TIP3      3582            0.0000000000
     35662      3782  TIP3      H2            -22.9948513637      -22.8375557335       49.7574377189  TIP3      3582            0.0000000000
     35663      3783  TIP3      OH2           -36.6989949596      -38.8376188425       48.4502558675  TIP3      3583            0.0000000000
     35664      3783  TIP3      H1            -36.9026901494      -38.8696079850       47.4889988174  TIP3      3583            0.0000000000
     35665      3783  TIP3      H2            -36.9880392721      -39.7107310241       48.6991276804  TIP3      3583            0.0000000000
     35666      3784  TIP3      OH2           -37.7625214178      -25.0382701284       44.6768482986  TIP3      3584            0.0000000000
     35667      3784  TIP3      H1            -38.6144244194      -24.5863689165       44.6341761437  TIP3      3584            0.0000000000
     35668      3784  TIP3      H2            -37.2749285220      -24.5616574310       43.9914784352  TIP3      3584            0.0000000000
     35669      3785  TIP3      OH2           -29.7559248261      -23.9499079558       38.9432095562  TIP3      3585            0.0000000000
     35670      3785  TIP3      H1            -30.4516579813      -24.6062722498       39.1766210186  TIP3      3585            0.0000000000
     35671      3785  TIP3      H2            -29.0408941990      -24.5520176998       38.7026863192  TIP3      3585            0.0000000000
     35672      3786  TIP3      OH2           -25.2035994466      -24.2067647347       39.1373173937  TIP3      3586            0.0000000000
     35673      3786  TIP3      H1            -24.9086196796      -24.9832303666       39.6406881213  TIP3      3586            0.0000000000
     35674      3786  TIP3      H2            -24.4407692190      -23.9835684174       38.5848051479  TIP3      3586            0.0000000000
     35675      3787  TIP3      OH2           -34.3275869777      -28.2676156675       38.9559490668  TIP3      3587            0.0000000000
     35676      3787  TIP3      H1            -34.1774847094      -29.0240088741       39.5459492031  TIP3      3587            0.0000000000
     35677      3787  TIP3      H2            -33.5750508174      -28.3791296392       38.3412926073  TIP3      3587            0.0000000000
     35678      3788  TIP3      OH2           -28.8869572611      -27.1559559306       38.7333598469  TIP3      3588            0.0000000000
     35679      3788  TIP3      H1            -29.1572735825      -27.0763302737       39.6618959831  TIP3      3588            0.0000000000
     35680      3788  TIP3      H2            -29.0752947944      -28.1137644279       38.5881583409  TIP3      3588            0.0000000000
     35681      3789  TIP3      OH2           -33.1195447222      -30.2419856702       41.3817939348  TIP3      3589            0.0000000000
     35682      3789  TIP3      H1            -33.6121668266      -30.7901117306       42.0104811405  TIP3      3589            0.0000000000
     35683      3789  TIP3      H2            -32.8148389715      -30.9173393359       40.7294939383  TIP3      3589            0.0000000000
     35684      3790  TIP3      OH2           -32.0508080893      -32.0187553720       39.5850029259  TIP3      3590            0.0000000000
     35685      3790  TIP3      H1            -32.1945946372      -32.1113090267       38.6227922581  TIP3      3590            0.0000000000
     35686      3790  TIP3      H2            -31.0721033566      -31.9731625125       39.6514945162  TIP3      3590            0.0000000000
     35687      3791  TIP3      OH2           -22.7084163945      -29.7052215089       38.9919895813  TIP3      3591            0.0000000000
     35688      3791  TIP3      H1            -22.9009259401      -30.0848649366       38.1214714590  TIP3      3591            0.0000000000
     35689      3791  TIP3      H2            -22.6220334811      -28.7425501905       38.8075275208  TIP3      3591            0.0000000000
     35690      3792  TIP3      OH2           -32.2089133814      -21.3218329385       40.6643697813  TIP3      3592            0.0000000000
     35691      3792  TIP3      H1            -31.2419052531      -21.2402016196       40.7304185992  TIP3      3592            0.0000000000
     35692      3792  TIP3      H2            -32.3523911193      -20.7237209481       39.9222712020  TIP3      3592            0.0000000000
     35693      3793  TIP3      OH2           -38.2544189839      -26.6294324297       39.8322211479  TIP3      3593            0.0000000000
     35694      3793  TIP3      H1            -37.3750832094      -26.7052395336       40.2723251819  TIP3      3593            0.0000000000
     35695      3793  TIP3      H2            -38.3569014809      -27.4752609715       39.3582265581  TIP3      3593            0.0000000000
     35696      3794  TIP3      OH2            40.2927301925      -21.1725003475       44.9068993301  TIP3      3594            0.0000000000
     35697      3794  TIP3      H1             39.4844696348      -21.6124884377       44.5802500997  TIP3      3594            0.0000000000
     35698      3794  TIP3      H2             40.4027367567      -21.8131154932       45.6421159100  TIP3      3594            0.0000000000
     35699      3795  TIP3      OH2           -39.0019016278      -23.2365305286       47.0031244404  TIP3      3595            0.0000000000
     35700      3795  TIP3      H1            -39.2689810539      -24.1444497625       47.2126948717  TIP3      3595            0.0000000000
     35701      3795  TIP3      H2            -38.7123917282      -22.9192757277       47.8949479422  TIP3      3595            0.0000000000
     35702      3796  TIP3      OH2           -22.1746406035      -28.7807777070       42.9425562675  TIP3      3596            0.0000000000
     35703      3796  TIP3      H1            -21.3082392668      -28.3979086228       43.1369109739  TIP3      3596            0.0000000000
     35704      3796  TIP3      H2            -22.1941536518      -29.5072617369       43.6039079397  TIP3      3596            0.0000000000
     35705      3797  TIP3      OH2           -21.8306683339      -30.7064027579       44.8174524476  TIP3      3597            0.0000000000
     35706      3797  TIP3      H1            -22.5682004040      -31.2076051555       45.2269479180  TIP3      3597            0.0000000000
     35707      3797  TIP3      H2            -21.2142907007      -30.5779989917       45.5736229280  TIP3      3597            0.0000000000
     35708      3798  TIP3      OH2           -21.9594219174      -27.7604754689       49.6936566814  TIP3      3598            0.0000000000
     35709      3798  TIP3      H1            -21.1638060089      -28.2740309124       49.4609867451  TIP3      3598            0.0000000000
     35710      3798  TIP3      H2            -21.7698728804      -26.8207559813       49.5699513567  TIP3      3598            0.0000000000
     35711      3799  TIP3      OH2           -21.5145383018      -30.8863928333       41.2268465363  TIP3      3599            0.0000000000
     35712      3799  TIP3      H1            -22.0843107077      -30.5477052606       40.5044727882  TIP3      3599            0.0000000000
     35713      3799  TIP3      H2            -21.6181441906      -30.1743487244       41.8851039133  TIP3      3599            0.0000000000
     35714      3800  TIP3      OH2           -23.1230939536      -33.6648775278       39.7361046013  TIP3      3600            0.0000000000
     35715      3800  TIP3      H1            -23.0705835552      -32.9940659459       39.0450213124  TIP3      3600            0.0000000000
     35716      3800  TIP3      H2            -23.3286899990      -34.4861463415       39.2465560864  TIP3      3600            0.0000000000
     35717      3801  TIP3      OH2           -23.9934312151      -32.2456077014       45.4372121512  TIP3      3601            0.0000000000
     35718      3801  TIP3      H1            -24.1395133306      -33.2014962701       45.3762410589  TIP3      3601            0.0000000000
     35719      3801  TIP3      H2            -24.3423754851      -32.0452658862       46.3228510895  TIP3      3601            0.0000000000
     35720      3802  TIP3      OH2           -38.8901316944      -30.3601470823       49.4719155841  TIP3      3602            0.0000000000
     35721      3802  TIP3      H1            -38.6932915868      -30.2990370786       48.5116279364  TIP3      3602            0.0000000000
     35722      3802  TIP3      H2            -38.0167773100      -30.3406236654       49.8847007796  TIP3      3602            0.0000000000
     35723      3803  TIP3      OH2           -23.8891085589      -36.1939344045       38.9013428230  TIP3      3603            0.0000000000
     35724      3803  TIP3      H1            -23.2966175103      -36.6567024101       39.5256466717  TIP3      3603            0.0000000000
     35725      3803  TIP3      H2            -24.7492346300      -36.6430439115       39.0048834846  TIP3      3603            0.0000000000
     35726      3804  TIP3      OH2           -24.3541084170      -34.6412812434       43.8145198732  TIP3      3604            0.0000000000
     35727      3804  TIP3      H1            -24.0339999272      -35.5548441961       43.9887913008  TIP3      3604            0.0000000000
     35728      3804  TIP3      H2            -23.5316061179      -34.2339526632       43.5113867278  TIP3      3604            0.0000000000
     35729      3805  TIP3      OH2           -23.7197779545      -33.9793555682       48.8690155191  TIP3      3605            0.0000000000
     35730      3805  TIP3      H1            -22.7606691378      -33.9681483499       49.0690851275  TIP3      3605            0.0000000000
     35731      3805  TIP3      H2            -24.0903845606      -34.0728909894       49.7758692717  TIP3      3605            0.0000000000
     35732      3806  TIP3      OH2           -23.6800291107      -37.3545845676       43.9190409797  TIP3      3606            0.0000000000
     35733      3806  TIP3      H1            -23.4655713296      -37.8106756194       44.7687500990  TIP3      3606            0.0000000000
     35734      3806  TIP3      H2            -24.2361046463      -38.0141878551       43.4531775592  TIP3      3606            0.0000000000
     35735      3807  TIP3      OH2           -38.1692880578      -36.5602314393       48.3949316653  TIP3      3607            0.0000000000
     35736      3807  TIP3      H1            -37.7480475138      -37.3812577493       48.7170781367  TIP3      3607            0.0000000000
     35737      3807  TIP3      H2            -37.6410308763      -35.8951544616       48.8636685349  TIP3      3607            0.0000000000
     35738      3808  TIP3      OH2           -39.8647414083      -33.0206812504       49.4493746384  TIP3      3608            0.0000000000
     35739      3808  TIP3      H1            -39.3386134383      -33.4921430100       48.7719459761  TIP3      3608            0.0000000000
     35740      3808  TIP3      H2            -39.2074423529      -32.4501346200       49.8501049261  TIP3      3608            0.0000000000
     35741      3809  TIP3      OH2           -21.8281183296      -37.3076968087       40.4805849062  TIP3      3609            0.0000000000
     35742      3809  TIP3      H1            -21.4389137290      -38.0429022377       39.9437742985  TIP3      3609            0.0000000000
     35743      3809  TIP3      H2            -21.1143320682      -36.6591578164       40.5041079215  TIP3      3609            0.0000000000
     35744      3810  TIP3      OH2           -39.5239101071      -37.3524948838       43.5134750260  TIP3      3610            0.0000000000
     35745      3810  TIP3      H1            -40.4592485483      -37.1341346838       43.4130753572  TIP3      3610            0.0000000000
     35746      3810  TIP3      H2            -39.0684890220      -36.8211546085       42.8272707317  TIP3      3610            0.0000000000
     35747      3811  TIP3      OH2           -24.7799974231      -22.3470591941       45.5163590864  TIP3      3611            0.0000000000
     35748      3811  TIP3      H1            -24.1023133095      -22.6492313974       44.8845655897  TIP3      3611            0.0000000000
     35749      3811  TIP3      H2            -24.2683340277      -21.8337537901       46.1612813172  TIP3      3611            0.0000000000
     35750      3812  TIP3      OH2           -37.7525628474      -22.5982695448       49.0421415206  TIP3      3612            0.0000000000
     35751      3812  TIP3      H1            -37.6490338628      -22.8261529384       49.9688804260  TIP3      3612            0.0000000000
     35752      3812  TIP3      H2            -36.8597551558      -22.8760219119       48.7542229568  TIP3      3612            0.0000000000
     35753      3813  TIP3      OH2           -35.5072162304      -23.8375599505       47.9115727692  TIP3      3613            0.0000000000
     35754      3813  TIP3      H1            -35.6403910062      -24.7875751902       48.0883401024  TIP3      3613            0.0000000000
     35755      3813  TIP3      H2            -34.6387510921      -23.7046169148       48.3459944643  TIP3      3613            0.0000000000
     35756      3814  TIP3      OH2           -32.9548023602      -23.3612378401       48.7681941720  TIP3      3614            0.0000000000
     35757      3814  TIP3      H1            -32.7192470256      -24.2664672179       48.4962721574  TIP3      3614            0.0000000000
     35758      3814  TIP3      H2            -32.8654481936      -23.4276465933       49.7207763942  TIP3      3614            0.0000000000
     35759      3815  TIP3      OH2           -29.4133887845      -37.6314704441       47.9556005742  TIP3      3615            0.0000000000
     35760      3815  TIP3      H1            -30.0641291760      -38.2934870324       48.2439665935  TIP3      3615            0.0000000000
     35761      3815  TIP3      H2            -28.8530453007      -38.1848736539       47.3897784092  TIP3      3615            0.0000000000
     35762      3816  TIP3      OH2           -24.2990454818      -38.7277540555       48.1670785625  TIP3      3616            0.0000000000
     35763      3816  TIP3      H1            -23.6254065137      -38.9293158949       47.4701908157  TIP3      3616            0.0000000000
     35764      3816  TIP3      H2            -25.0900138466      -39.2101873061       47.8736453215  TIP3      3616            0.0000000000
     35765      3817  TIP3      OH2           -22.5972848276      -38.4113276494       46.1973491676  TIP3      3617            0.0000000000
     35766      3817  TIP3      H1            -21.9109143628      -39.0373772322       45.9081594953  TIP3      3617            0.0000000000
     35767      3817  TIP3      H2            -22.1053298118      -37.5703198302       46.3318809402  TIP3      3617            0.0000000000
     35768      3818  TIP3      OH2           -37.0677144532      -39.1076320267       45.7630965286  TIP3      3618            0.0000000000
     35769      3818  TIP3      H1            -37.8324843570      -39.3153085595       45.2004861990  TIP3      3618            0.0000000000
     35770      3818  TIP3      H2            -36.5931269092      -39.9499375826       45.7400113512  TIP3      3618            0.0000000000
     35771      3819  TIP3      OH2           -38.3388166145      -39.3467718138       41.4923850880  TIP3      3619            0.0000000000
     35772      3819  TIP3      H1            -37.8034318462      -38.7266501714       40.9634192507  TIP3      3619            0.0000000000
     35773      3819  TIP3      H2            -38.8639251342      -38.7315725057       42.0266402234  TIP3      3619            0.0000000000
     35774      3820  TIP3      OH2           -32.6825496320      -38.7997111356       45.4176415552  TIP3      3620            0.0000000000
     35775      3820  TIP3      H1            -31.7210992481      -38.7014269246       45.3738020681  TIP3      3620            0.0000000000
     35776      3820  TIP3      H2            -32.6884968824      -39.2603999177       46.2556415942  TIP3      3620            0.0000000000
     35777      3821  TIP3      OH2           -27.0695170642      -39.0485874780       47.3887113441  TIP3      3621            0.0000000000
     35778      3821  TIP3      H1            -26.9373476516      -38.9496246439       46.4300503817  TIP3      3621            0.0000000000
     35779      3821  TIP3      H2            -27.2077475940      -39.9981709572       47.4155274519  TIP3      3621            0.0000000000
     35780      3822  TIP3      OH2           -25.6226493819      -39.0407335453       42.8771272206  TIP3      3622            0.0000000000
     35781      3822  TIP3      H1            -26.3915160522      -38.4722098343       42.7224054104  TIP3      3622            0.0000000000
     35782      3822  TIP3      H2            -25.9591288011      -39.9431200464       43.0055641270  TIP3      3622            0.0000000000
     35783      3823  TIP3      OH2           -38.3785791178      -23.3914210567       42.4884725205  TIP3      3623            0.0000000000
     35784      3823  TIP3      H1            -39.0430070607      -23.3804989046       41.7963602880  TIP3      3623            0.0000000000
     35785      3823  TIP3      H2            -38.3500133786      -22.4414320952       42.6886494133  TIP3      3623            0.0000000000
     35786      3824  TIP3      OH2           -36.4720021685      -37.4774855476       40.0216976154  TIP3      3624            0.0000000000
     35787      3824  TIP3      H1            -35.9008855278      -37.9987345064       39.4261291413  TIP3      3624            0.0000000000
     35788      3824  TIP3      H2            -35.7986402618      -37.0862245284       40.6150175139  TIP3      3624            0.0000000000
     35789      3825  TIP3      OH2           -31.4977519198      -37.1545782942       42.4674339393  TIP3      3625            0.0000000000
     35790      3825  TIP3      H1            -31.1600863117      -37.7232411962       43.1735029150  TIP3      3625            0.0000000000
     35791      3825  TIP3      H2            -31.3714185459      -36.2771652713       42.8869349197  TIP3      3625            0.0000000000
     35792      3826  TIP3      OH2           -29.4926741871      -22.0703374452       40.8528482060  TIP3      3626            0.0000000000
     35793      3826  TIP3      H1            -28.5744433070      -21.8464805676       40.6305935999  TIP3      3626            0.0000000000
     35794      3826  TIP3      H2            -29.7136987677      -22.5914789879       40.0525625039  TIP3      3626            0.0000000000
     35795      3827  TIP3      OH2           -22.7902728263      -22.5736816780       43.5685494496  TIP3      3627            0.0000000000
     35796      3827  TIP3      H1            -22.9931470262      -23.3546231907       43.0020894990  TIP3      3627            0.0000000000
     35797      3827  TIP3      H2            -22.8665433917      -21.8363015334       42.9286303591  TIP3      3627            0.0000000000
     35798      3828  TIP3      OH2           -36.6033362112      -22.4304812853       39.4441117151  TIP3      3628            0.0000000000
     35799      3828  TIP3      H1            -36.8109976808      -22.1290512068       40.3385753278  TIP3      3628            0.0000000000
     35800      3828  TIP3      H2            -35.7852077723      -22.9456048561       39.6037551687  TIP3      3628            0.0000000000
     35801      3829  TIP3      OH2            -9.1059827764      -29.9726748419       45.6298892809  TIP3      3629            0.0000000000
     35802      3829  TIP3      H1             -9.1017695885      -28.9872466536       45.6126449659  TIP3      3629            0.0000000000
     35803      3829  TIP3      H2             -9.8411176262      -30.1692155047       45.0255609646  TIP3      3629            0.0000000000
     35804      3830  TIP3      OH2           -10.1990558905      -30.7100291989       49.1308761421  TIP3      3630            0.0000000000
     35805      3830  TIP3      H1            -10.3274620226      -31.3268284674       49.8731665652  TIP3      3630            0.0000000000
     35806      3830  TIP3      H2            -10.5730556713      -31.1579601533       48.3595090546  TIP3      3630            0.0000000000
     35807      3831  TIP3      OH2            -6.6568310894      -27.7733434683       47.3513278968  TIP3      3631            0.0000000000
     35808      3831  TIP3      H1             -7.0021420246      -28.4829705538       47.9160024095  TIP3      3631            0.0000000000
     35809      3831  TIP3      H2             -6.5153380239      -27.0843951384       48.0575129457  TIP3      3631            0.0000000000
     35810      3832  TIP3      OH2           -16.9771143422      -26.4972628617       49.0536239172  TIP3      3632            0.0000000000
     35811      3832  TIP3      H1            -17.2833285561      -27.4067998035       48.8665513842  TIP3      3632            0.0000000000
     35812      3832  TIP3      H2            -16.0352319803      -26.7247877928       49.2188140036  TIP3      3632            0.0000000000
     35813      3833  TIP3      OH2           -20.3386800046      -33.0153187801       44.6730760849  TIP3      3633            0.0000000000
     35814      3833  TIP3      H1            -20.7661016939      -32.1434507676       44.5988272906  TIP3      3633            0.0000000000
     35815      3833  TIP3      H2            -20.9019917096      -33.5537366235       44.1003231225  TIP3      3633            0.0000000000
     35816      3834  TIP3      OH2           -19.6457701022      -30.8007631211       46.7697646966  TIP3      3634            0.0000000000
     35817      3834  TIP3      H1            -19.3698447035      -31.5906147598       47.2677759468  TIP3      3634            0.0000000000
     35818      3834  TIP3      H2            -18.9080781362      -30.6823784889       46.1571874859  TIP3      3634            0.0000000000
     35819      3835  TIP3      OH2            -9.4540164843      -22.5797289104       47.6853782438  TIP3      3635            0.0000000000
     35820      3835  TIP3      H1             -8.7967784376      -23.2487623735       47.3639319529  TIP3      3635            0.0000000000
     35821      3835  TIP3      H2             -9.6378615817      -22.9166692649       48.5625013890  TIP3      3635            0.0000000000
     35822      3836  TIP3      OH2           -11.8171900051      -28.2346506252       49.5667321246  TIP3      3636            0.0000000000
     35823      3836  TIP3      H1            -11.4854814319      -28.9199950273       48.9698311772  TIP3      3636            0.0000000000
     35824      3836  TIP3      H2            -11.0659105128      -28.1624889785       50.1585676156  TIP3      3636            0.0000000000
     35825      3837  TIP3      OH2            -8.6149784128      -33.8391441273       49.8760371286  TIP3      3637            0.0000000000
     35826      3837  TIP3      H1             -8.5754452767      -34.8159934467       49.9140972409  TIP3      3637            0.0000000000
     35827      3837  TIP3      H2             -8.8552427418      -33.6790184167       48.9450326788  TIP3      3637            0.0000000000
     35828      3838  TIP3      OH2           -15.5781800746      -35.7306033811       47.1067907295  TIP3      3638            0.0000000000
     35829      3838  TIP3      H1            -15.4884814029      -34.8821798155       46.6295291853  TIP3      3638            0.0000000000
     35830      3838  TIP3      H2            -15.9831755543      -36.3098478646       46.4249587807  TIP3      3638            0.0000000000
     35831      3839  TIP3      OH2            -7.8473633700      -35.5928705251       45.5245011813  TIP3      3639            0.0000000000
     35832      3839  TIP3      H1             -7.2235152360      -36.0576133896       46.1158479039  TIP3      3639            0.0000000000
     35833      3839  TIP3      H2             -7.2847066356      -35.0991452219       44.9092119632  TIP3      3639            0.0000000000
     35834      3840  TIP3      OH2           -18.9864708871      -33.3629281975       47.8577445055  TIP3      3640            0.0000000000
     35835      3840  TIP3      H1            -18.3006908050      -33.8900945342       48.3163169516  TIP3      3640            0.0000000000
     35836      3840  TIP3      H2            -18.8446819459      -33.6411315672       46.9321147967  TIP3      3640            0.0000000000
     35837      3841  TIP3      OH2           -13.8040493676      -31.7876929475       47.1599086293  TIP3      3641            0.0000000000
     35838      3841  TIP3      H1            -13.1352655200      -32.3707444227       47.5654824053  TIP3      3641            0.0000000000
     35839      3841  TIP3      H2            -14.3363162106      -32.4296033056       46.6486968737  TIP3      3641            0.0000000000
     35840      3842  TIP3      OH2            -9.4161853483      -27.3557339162       44.7363695660  TIP3      3642            0.0000000000
     35841      3842  TIP3      H1             -9.6525557103      -27.6298514819       43.8425733029  TIP3      3642            0.0000000000
     35842      3842  TIP3      H2             -9.7009447261      -26.4162329714       44.7785944508  TIP3      3642            0.0000000000
     35843      3843  TIP3      OH2            -6.1203335370      -36.3351771604       47.5358818540  TIP3      3643            0.0000000000
     35844      3843  TIP3      H1             -6.2375258218      -37.1832491734       48.0230238416  TIP3      3643            0.0000000000
     35845      3843  TIP3      H2             -5.3258333679      -36.0848807941       48.0544779766  TIP3      3643            0.0000000000
     35846      3844  TIP3      OH2           -17.1060151502      -34.9935370639       49.1487164972  TIP3      3644            0.0000000000
     35847      3844  TIP3      H1            -16.5645136815      -34.2680316255       49.4667359150  TIP3      3644            0.0000000000
     35848      3844  TIP3      H2            -16.5762135647      -35.4026934678       48.4333363266  TIP3      3644            0.0000000000
     35849      3845  TIP3      OH2           -19.5981569874      -27.5645499850       43.0076546634  TIP3      3645            0.0000000000
     35850      3845  TIP3      H1            -19.9279317932      -27.2465351989       42.1535627317  TIP3      3645            0.0000000000
     35851      3845  TIP3      H2            -19.5865593607      -26.7539516691       43.5534397461  TIP3      3645            0.0000000000
     35852      3846  TIP3      OH2            -5.9837043068      -26.1890145158       49.2802920859  TIP3      3646            0.0000000000
     35853      3846  TIP3      H1             -6.7725415121      -26.0753196330       49.8529470098  TIP3      3646            0.0000000000
     35854      3846  TIP3      H2             -5.6255009605      -25.3138873871       49.4596068777  TIP3      3646            0.0000000000
     35855      3847  TIP3      OH2           -12.6606473094      -39.3898735353       48.5996923749  TIP3      3647            0.0000000000
     35856      3847  TIP3      H1            -12.7580043107      -40.3491773980       48.7738565215  TIP3      3647            0.0000000000
     35857      3847  TIP3      H2            -13.5219347260      -39.1346268394       48.9611141039  TIP3      3647            0.0000000000
     35858      3848  TIP3      OH2            -7.8097106145      -24.1138002220       46.3510691941  TIP3      3648            0.0000000000
     35859      3848  TIP3      H1             -7.3595211107      -24.8339659613       45.8567968565  TIP3      3648            0.0000000000
     35860      3848  TIP3      H2             -7.3527887521      -23.3224394552       45.9948608227  TIP3      3648            0.0000000000
     35861      3849  TIP3      OH2            -6.5684015154      -26.1659680632       44.9131554156  TIP3      3649            0.0000000000
     35862      3849  TIP3      H1             -6.8621717628      -26.8749468447       44.3160161639  TIP3      3649            0.0000000000
     35863      3849  TIP3      H2             -6.5270495647      -26.6665080879       45.7499127717  TIP3      3649            0.0000000000
     35864      3850  TIP3      OH2           -10.4508525219      -30.7197420797       43.1341604094  TIP3      3650            0.0000000000
     35865      3850  TIP3      H1            -11.1449377147      -30.1308634692       42.7732671472  TIP3      3650            0.0000000000
     35866      3850  TIP3      H2             -9.7394222517      -30.6099761795       42.4793614027  TIP3      3650            0.0000000000
     35867      3851  TIP3      OH2           -10.3849323009      -32.1576310309       40.1381504508  TIP3      3651            0.0000000000
     35868      3851  TIP3      H1             -9.6809237332      -32.1384243861       40.8114090257  TIP3      3651            0.0000000000
     35869      3851  TIP3      H2            -10.0278581036      -32.8652183685       39.5872977017  TIP3      3651            0.0000000000
     35870      3852  TIP3      OH2            -7.0016792082      -30.5162570244       44.0515267378  TIP3      3652            0.0000000000
     35871      3852  TIP3      H1             -7.7506744560      -30.2493087103       44.6367236639  TIP3      3652            0.0000000000
     35872      3852  TIP3      H2             -6.5329715576      -31.1792719856       44.5736858339  TIP3      3652            0.0000000000
     35873      3853  TIP3      OH2           -15.3993943537      -29.8367930990       45.9812107119  TIP3      3653            0.0000000000
     35874      3853  TIP3      H1            -15.7270844833      -30.2252563090       45.1363963581  TIP3      3653            0.0000000000
     35875      3853  TIP3      H2            -14.7616695667      -30.5227095160       46.2747229883  TIP3      3653            0.0000000000
     35876      3854  TIP3      OH2           -13.9980200803      -26.3899599914       48.6220787415  TIP3      3654            0.0000000000
     35877      3854  TIP3      H1            -14.0678563265      -26.9656278250       47.8482424878  TIP3      3654            0.0000000000
     35878      3854  TIP3      H2            -13.2850279387      -26.8188269309       49.1267355758  TIP3      3654            0.0000000000
     35879      3855  TIP3      OH2           -15.1701591123      -31.0098111987       49.4838605235  TIP3      3655            0.0000000000
     35880      3855  TIP3      H1            -14.5308642701      -30.9358220133       48.7610342713  TIP3      3655            0.0000000000
     35881      3855  TIP3      H2            -14.7144339922      -30.5492416018       50.2085483623  TIP3      3655            0.0000000000
     35882      3856  TIP3      OH2            -8.1247593704      -31.2954278432       41.7195804130  TIP3      3656            0.0000000000
     35883      3856  TIP3      H1             -7.5736429833      -31.1061022699       42.5214040337  TIP3      3656            0.0000000000
     35884      3856  TIP3      H2             -7.6715316883      -30.7997683956       41.0012404168  TIP3      3656            0.0000000000
     35885      3857  TIP3      OH2           -10.4167563664      -24.5880651306       45.1831277167  TIP3      3657            0.0000000000
     35886      3857  TIP3      H1             -9.9813898104      -24.2759788078       45.9854574728  TIP3      3657            0.0000000000
     35887      3857  TIP3      H2            -10.9733672187      -23.8335893208       44.9534009519  TIP3      3657            0.0000000000
     35888      3858  TIP3      OH2            -4.4084810296      -39.5405148977       41.6392158244  TIP3      3658            0.0000000000
     35889      3858  TIP3      H1             -5.3318116964      -39.4297655869       41.9095150152  TIP3      3658            0.0000000000
     35890      3858  TIP3      H2             -4.1995114551      -38.7272815655       41.1639301616  TIP3      3658            0.0000000000
     35891      3859  TIP3      OH2           -16.4362609793      -30.8187423184       43.6146560259  TIP3      3659            0.0000000000
     35892      3859  TIP3      H1            -16.7106458160      -30.0361465405       43.0931417583  TIP3      3659            0.0000000000
     35893      3859  TIP3      H2            -17.0749914734      -31.4869163699       43.3594034054  TIP3      3659            0.0000000000
     35894      3860  TIP3      OH2            -3.2875270018      -25.2122322573       39.9801984040  TIP3      3660            0.0000000000
     35895      3860  TIP3      H1             -3.1207130680      -24.2693638253       40.1502080055  TIP3      3660            0.0000000000
     35896      3860  TIP3      H2             -2.3643471233      -25.5258235229       39.9785799487  TIP3      3660            0.0000000000
     35897      3861  TIP3      OH2           -20.5015802940      -25.4726053839       49.0690670141  TIP3      3661            0.0000000000
     35898      3861  TIP3      H1            -19.6001574486      -25.7631639497       49.2622770058  TIP3      3661            0.0000000000
     35899      3861  TIP3      H2            -20.6802718383      -24.8106940859       49.7414800226  TIP3      3661            0.0000000000
     35900      3862  TIP3      OH2           -10.9324950270      -21.6635023188       43.6116204351  TIP3      3662            0.0000000000
     35901      3862  TIP3      H1            -11.0413237904      -21.7390288047       42.6472926368  TIP3      3662            0.0000000000
     35902      3862  TIP3      H2            -10.9273170067      -20.7008544257       43.7687886255  TIP3      3662            0.0000000000
     35903      3863  TIP3      OH2           -17.2741337316      -22.8183604981       45.3883232157  TIP3      3663            0.0000000000
     35904      3863  TIP3      H1            -17.1284701758      -23.2009514681       46.2839734003  TIP3      3663            0.0000000000
     35905      3863  TIP3      H2            -18.1542738144      -23.1815942244       45.2192821759  TIP3      3663            0.0000000000
     35906      3864  TIP3      OH2            -7.8826697862      -22.4498475957       40.5886222821  TIP3      3664            0.0000000000
     35907      3864  TIP3      H1             -7.4212576753      -23.2069607607       40.1585325503  TIP3      3664            0.0000000000
     35908      3864  TIP3      H2             -7.8398797614      -22.7067395659       41.5361544424  TIP3      3664            0.0000000000
     35909      3865  TIP3      OH2            -8.1871011950      -22.5189615407       43.3662937820  TIP3      3665            0.0000000000
     35910      3865  TIP3      H1             -9.1443985387      -22.4379304855       43.5428617484  TIP3      3665            0.0000000000
     35911      3865  TIP3      H2             -7.9505436906      -23.2588668212       43.9479635920  TIP3      3665            0.0000000000
     35912      3866  TIP3      OH2           -15.4445129730      -38.5088793124       49.3893207320  TIP3      3666            0.0000000000
     35913      3866  TIP3      H1            -16.3071287461      -38.6336285340       48.9282583308  TIP3      3666            0.0000000000
     35914      3866  TIP3      H2            -15.4850377265      -37.6533812120       49.8099783902  TIP3      3666            0.0000000000
     35915      3867  TIP3      OH2            -6.6706706505      -30.2699080310       39.5514864756  TIP3      3667            0.0000000000
     35916      3867  TIP3      H1             -6.6990410043      -30.4515649239       38.5840363058  TIP3      3667            0.0000000000
     35917      3867  TIP3      H2             -5.8171665357      -29.8157945864       39.5940232501  TIP3      3667            0.0000000000
     35918      3868  TIP3      OH2           -11.0930279770      -36.3572596626       40.0563040468  TIP3      3668            0.0000000000
     35919      3868  TIP3      H1            -11.3773432107      -36.4337320192       40.9849841627  TIP3      3668            0.0000000000
     35920      3868  TIP3      H2            -11.3807820262      -37.2446173338       39.7526660993  TIP3      3668            0.0000000000
     35921      3869  TIP3      OH2           -15.3074742668      -33.5074234714       45.4762756110  TIP3      3669            0.0000000000
     35922      3869  TIP3      H1            -16.2467083013      -33.7580167291       45.3538466017  TIP3      3669            0.0000000000
     35923      3869  TIP3      H2            -14.9339790139      -33.7855013669       44.6160313229  TIP3      3669            0.0000000000
     35924      3870  TIP3      OH2            -9.7639619568      -32.9959624677       44.2774565811  TIP3      3670            0.0000000000
     35925      3870  TIP3      H1            -10.1766921950      -32.1720138080       43.9182413585  TIP3      3670            0.0000000000
     35926      3870  TIP3      H2             -9.1031478425      -33.1744405429       43.5866617998  TIP3      3670            0.0000000000
     35927      3871  TIP3      OH2            -8.6351735556      -33.5356319407       47.0847827127  TIP3      3671            0.0000000000
     35928      3871  TIP3      H1             -9.0319438344      -32.9514023916       46.3990188422  TIP3      3671            0.0000000000
     35929      3871  TIP3      H2             -8.7033801469      -34.3885192510       46.5989190173  TIP3      3671            0.0000000000
     35930      3872  TIP3      OH2           -14.2906595888      -35.8691042598       39.1591049093  TIP3      3672            0.0000000000
     35931      3872  TIP3      H1            -14.6727888831      -36.3849840629       39.9123713806  TIP3      3672            0.0000000000
     35932      3872  TIP3      H2            -15.0800645938      -35.6075299292       38.6815902290  TIP3      3672            0.0000000000
     35933      3873  TIP3      OH2           -21.0005905505      -36.2296532730       46.2623713907  TIP3      3673            0.0000000000
     35934      3873  TIP3      H1            -20.3336630563      -36.2520883865       46.9774063677  TIP3      3673            0.0000000000
     35935      3873  TIP3      H2            -20.5412766698      -36.6266303159       45.5017308312  TIP3      3673            0.0000000000
     35936      3874  TIP3      OH2           -19.7221199489      -35.5367654122       41.6774550656  TIP3      3674            0.0000000000
     35937      3874  TIP3      H1            -19.2038765096      -34.9550338989       41.0865295580  TIP3      3674            0.0000000000
     35938      3874  TIP3      H2            -20.4081299515      -34.9085506450       41.9784238379  TIP3      3674            0.0000000000
     35939      3875  TIP3      OH2           -12.7358729972      -35.9299743159       46.5168749722  TIP3      3675            0.0000000000
     35940      3875  TIP3      H1            -13.6702176104      -35.9988175521       46.7916938614  TIP3      3675            0.0000000000
     35941      3875  TIP3      H2            -12.2579423891      -36.1351089781       47.3326588699  TIP3      3675            0.0000000000
     35942      3876  TIP3      OH2           -17.9158847516      -34.4041932686       45.3573360868  TIP3      3676            0.0000000000
     35943      3876  TIP3      H1            -18.8097961301      -34.2608437922       44.9882974540  TIP3      3676            0.0000000000
     35944      3876  TIP3      H2            -17.6431685948      -35.2562894579       44.9738809143  TIP3      3676            0.0000000000
     35945      3877  TIP3      OH2           -14.2922860028      -34.3679092952       43.0106238321  TIP3      3677            0.0000000000
     35946      3877  TIP3      H1            -13.3352991488      -34.2509443010       43.1583120375  TIP3      3677            0.0000000000
     35947      3877  TIP3      H2            -14.5393543327      -33.6696656926       42.3729244151  TIP3      3677            0.0000000000
     35948      3878  TIP3      OH2            -8.3414385798      -36.7067177370       49.5838356226  TIP3      3678            0.0000000000
     35949      3878  TIP3      H1             -8.9130809037      -36.6845761056       50.3769446556  TIP3      3678            0.0000000000
     35950      3878  TIP3      H2             -8.9558798660      -37.0690233061       48.9304703080  TIP3      3678            0.0000000000
     35951      3879  TIP3      OH2           -15.5885254383      -33.1752576953       40.5854734433  TIP3      3679            0.0000000000
     35952      3879  TIP3      H1            -16.1360153897      -33.5732028956       39.8909693878  TIP3      3679            0.0000000000
     35953      3879  TIP3      H2            -14.7638938823      -32.9699285336       40.1271314594  TIP3      3679            0.0000000000
     35954      3880  TIP3      OH2           -11.4472821887      -33.2339034824       48.4081955991  TIP3      3680            0.0000000000
     35955      3880  TIP3      H1            -10.8886422102      -33.7822293916       47.8399089004  TIP3      3680            0.0000000000
     35956      3880  TIP3      H2            -11.5923887572      -33.7867307278       49.1848951118  TIP3      3680            0.0000000000
     35957      3881  TIP3      OH2           -16.4596373163      -37.0895520457       44.8644554403  TIP3      3681            0.0000000000
     35958      3881  TIP3      H1            -16.8016767120      -37.9951664234       44.8075775607  TIP3      3681            0.0000000000
     35959      3881  TIP3      H2            -15.6777448599      -37.1411293256       44.2927323754  TIP3      3681            0.0000000000
     35960      3882  TIP3      OH2           -12.2398605447      -28.6436525067       42.5114871243  TIP3      3682            0.0000000000
     35961      3882  TIP3      H1            -13.0378264570      -29.1107657667       42.1768092856  TIP3      3682            0.0000000000
     35962      3882  TIP3      H2            -12.4664833681      -28.5184600026       43.4553439193  TIP3      3682            0.0000000000
     35963      3883  TIP3      OH2            -8.4136900746      -35.8535267808       40.7437712946  TIP3      3683            0.0000000000
     35964      3883  TIP3      H1             -9.3567390463      -35.6892149847       40.5586662235  TIP3      3683            0.0000000000
     35965      3883  TIP3      H2             -8.0678940291      -34.9798543838       41.0298085404  TIP3      3683            0.0000000000
     35966      3884  TIP3      OH2            -7.6730453579      -33.9071166875       42.3311227937  TIP3      3684            0.0000000000
     35967      3884  TIP3      H1             -6.7769471999      -34.0187479954       42.7011842467  TIP3      3684            0.0000000000
     35968      3884  TIP3      H2             -7.5849929134      -33.0942635710       41.8015708132  TIP3      3684            0.0000000000
     35969      3885  TIP3      OH2           -17.2264790574      -29.3030513756       48.2602411969  TIP3      3685            0.0000000000
     35970      3885  TIP3      H1            -16.4706958478      -29.3198003576       47.6483651698  TIP3      3685            0.0000000000
     35971      3885  TIP3      H2            -17.0496502200      -30.1110985122       48.7582484631  TIP3      3685            0.0000000000
     35972      3886  TIP3      OH2           -10.1428455256      -27.1754190034       41.5409975962  TIP3      3686            0.0000000000
     35973      3886  TIP3      H1            -10.4827592179      -26.3308118413       41.9035431265  TIP3      3686            0.0000000000
     35974      3886  TIP3      H2            -10.8704701911      -27.7940636728       41.7678179855  TIP3      3686            0.0000000000
     35975      3887  TIP3      OH2            -2.7777913363      -33.7706273059       42.0882862795  TIP3      3687            0.0000000000
     35976      3887  TIP3      H1             -3.3337984556      -34.0698997007       41.3428339726  TIP3      3687            0.0000000000
     35977      3887  TIP3      H2             -2.6961798255      -32.8233532735       41.8315213593  TIP3      3687            0.0000000000
     35978      3888  TIP3      OH2            -4.5201255406      -24.9430948745       42.4813006956  TIP3      3688            0.0000000000
     35979      3888  TIP3      H1             -4.8486414601      -25.7790691537       42.8333228693  TIP3      3688            0.0000000000
     35980      3888  TIP3      H2             -4.1625095161      -25.1637474785       41.6054034684  TIP3      3688            0.0000000000
     35981      3889  TIP3      OH2            -7.6008344381      -30.0655520265       48.8757931013  TIP3      3689            0.0000000000
     35982      3889  TIP3      H1             -8.3680994329      -30.2505127453       49.4604489473  TIP3      3689            0.0000000000
     35983      3889  TIP3      H2             -7.0716893400      -30.8798054569       48.8982504461  TIP3      3689            0.0000000000
     35984      3890  TIP3      OH2           -14.7447891869      -25.7961468734       45.7168454603  TIP3      3690            0.0000000000
     35985      3890  TIP3      H1            -14.2520730541      -24.9871687904       45.5083540485  TIP3      3690            0.0000000000
     35986      3890  TIP3      H2            -15.6265459963      -25.5718847196       45.3944048676  TIP3      3690            0.0000000000
     35987      3891  TIP3      OH2           -18.9833631046      -30.9615207352       40.2651009328  TIP3      3691            0.0000000000
     35988      3891  TIP3      H1            -18.4081483753      -30.2915876491       40.6740706741  TIP3      3691            0.0000000000
     35989      3891  TIP3      H2            -19.8770768684      -30.6533271375       40.5126333303  TIP3      3691            0.0000000000
     35990      3892  TIP3      OH2           -13.3478123188      -28.1205025079       45.1916361472  TIP3      3692            0.0000000000
     35991      3892  TIP3      H1            -13.6574334863      -27.2060441801       45.3174096438  TIP3      3692            0.0000000000
     35992      3892  TIP3      H2            -14.0619927368      -28.6159367580       45.6338419196  TIP3      3692            0.0000000000
     35993      3893  TIP3      OH2           -14.6605634288      -23.1168794207       44.7015764722  TIP3      3693            0.0000000000
     35994      3893  TIP3      H1            -15.6165787991      -22.9940068859       44.8888054231  TIP3      3693            0.0000000000
     35995      3893  TIP3      H2            -14.2878910411      -22.3100467161       45.1080116612  TIP3      3693            0.0000000000
     35996      3894  TIP3      OH2            -7.0256653121      -26.8696476358       40.3308388359  TIP3      3694            0.0000000000
     35997      3894  TIP3      H1             -6.7317240815      -27.3449978654       41.1340827622  TIP3      3694            0.0000000000
     35998      3894  TIP3      H2             -7.9791392028      -27.0546658220       40.4118741389  TIP3      3694            0.0000000000
     35999      3895  TIP3      OH2            -2.5657529433      -22.5204590595       40.5873377534  TIP3      3695            0.0000000000
     36000      3895  TIP3      H1             -1.8786031550      -21.8552054255       40.3807945757  TIP3      3695            0.0000000000
     36001      3895  TIP3      H2             -3.2805913306      -21.9089913051       40.8727630088  TIP3      3695            0.0000000000
     36002      3896  TIP3      OH2            -6.2552228462      -28.2401957274       42.5750771801  TIP3      3696            0.0000000000
     36003      3896  TIP3      H1             -6.4919821832      -29.0225159743       43.1201165528  TIP3      3696            0.0000000000
     36004      3896  TIP3      H2             -5.3024192949      -28.1957919982       42.7498332622  TIP3      3696            0.0000000000
     36005      3897  TIP3      OH2           -12.9348118046      -25.7888849960       38.8247806628  TIP3      3697            0.0000000000
     36006      3897  TIP3      H1            -12.7813428241      -26.5524092564       38.2385533307  TIP3      3697            0.0000000000
     36007      3897  TIP3      H2            -13.3222267560      -26.2509178121       39.5948112004  TIP3      3697            0.0000000000
     36008      3898  TIP3      OH2           -14.1863398876      -26.2601935693       41.3045703213  TIP3      3698            0.0000000000
     36009      3898  TIP3      H1            -13.8336065998      -26.7999842324       42.0283059679  TIP3      3698            0.0000000000
     36010      3898  TIP3      H2            -13.9929004527      -25.3488109879       41.6191156759  TIP3      3698            0.0000000000
     36011      3899  TIP3      OH2           -17.5956901388      -29.0307499352       41.7416105828  TIP3      3699            0.0000000000
     36012      3899  TIP3      H1            -18.2996424655      -28.6496295819       42.3122396569  TIP3      3699            0.0000000000
     36013      3899  TIP3      H2            -17.0666502168      -28.2616278565       41.4863860461  TIP3      3699            0.0000000000
     36014      3900  TIP3      OH2            -8.9145863020      -36.8121752036       43.2080710412  TIP3      3700            0.0000000000
     36015      3900  TIP3      H1             -8.8167299337      -36.2998956899       42.3664707522  TIP3      3700            0.0000000000
     36016      3900  TIP3      H2             -8.4345442585      -36.2551795396       43.8267196916  TIP3      3700            0.0000000000
     36017      3901  TIP3      OH2           -11.3211706624      -24.6150506374       41.9705879040  TIP3      3701            0.0000000000
     36018      3901  TIP3      H1            -12.1212518732      -24.0689493045       42.0627751023  TIP3      3701            0.0000000000
     36019      3901  TIP3      H2            -10.7791771003      -24.0623733422       41.3885335348  TIP3      3701            0.0000000000
     36020      3902  TIP3      OH2           -11.7760767993      -35.0379197293       43.9786830193  TIP3      3702            0.0000000000
     36021      3902  TIP3      H1            -11.0122900408      -34.4368572690       44.0241665788  TIP3      3702            0.0000000000
     36022      3902  TIP3      H2            -12.0434663048      -35.1382427669       44.9096287551  TIP3      3702            0.0000000000
     36023      3903  TIP3      OH2           -10.9689842543      -37.9734626160       44.9334265628  TIP3      3703            0.0000000000
     36024      3903  TIP3      H1            -11.2786718940      -37.2881324804       45.5493179520  TIP3      3703            0.0000000000
     36025      3903  TIP3      H2            -10.2939571055      -37.4673048376       44.4252037821  TIP3      3703            0.0000000000
     36026      3904  TIP3      OH2           -14.0043457687      -23.5735247256       41.9791398258  TIP3      3704            0.0000000000
     36027      3904  TIP3      H1            -13.7836095167      -22.7551647415       41.4678300167  TIP3      3704            0.0000000000
     36028      3904  TIP3      H2            -14.1677397956      -23.2139178907       42.8841284439  TIP3      3704            0.0000000000
     36029      3905  TIP3      OH2           -15.2903591061      -36.7912339872       41.5313953779  TIP3      3705            0.0000000000
     36030      3905  TIP3      H1            -15.3356630303      -35.9261955736       41.9825816070  TIP3      3705            0.0000000000
     36031      3905  TIP3      H2            -14.4017440235      -37.0760476090       41.8348494924  TIP3      3705            0.0000000000
     36032      3906  TIP3      OH2            -6.4633442000      -32.2382453246       47.9666962624  TIP3      3706            0.0000000000
     36033      3906  TIP3      H1             -7.3670414725      -32.6088080154       47.8497991646  TIP3      3706            0.0000000000
     36034      3906  TIP3      H2             -6.0066704134      -32.8183576354       48.6258058767  TIP3      3706            0.0000000000
     36035      3907  TIP3      OH2           -17.0040220980      -26.4087131235       40.5913092050  TIP3      3707            0.0000000000
     36036      3907  TIP3      H1            -16.2344403134      -25.9897510618       41.0183610800  TIP3      3707            0.0000000000
     36037      3907  TIP3      H2            -16.5211677280      -26.9603802218       39.9294590504  TIP3      3707            0.0000000000
     36038      3908  TIP3      OH2           -18.6725346745      -33.7359112990       39.7330245919  TIP3      3708            0.0000000000
     36039      3908  TIP3      H1            -18.6827098522      -32.7853863401       39.9827057424  TIP3      3708            0.0000000000
     36040      3908  TIP3      H2            -19.5765677184      -33.9148766934       39.4651311823  TIP3      3708            0.0000000000
     36041      3909  TIP3      OH2            -5.0742208185      -22.8364533987       49.6033487234  TIP3      3709            0.0000000000
     36042      3909  TIP3      H1             -5.2596878332      -22.1899095257       48.8825396527  TIP3      3709            0.0000000000
     36043      3909  TIP3      H2             -4.1323377255      -22.8395841365       49.7549223009  TIP3      3709            0.0000000000
     36044      3910  TIP3      OH2           -17.8611991323      -38.8317685966       48.4386005341  TIP3      3710            0.0000000000
     36045      3910  TIP3      H1            -18.0507197101      -38.8775630478       47.4764537924  TIP3      3710            0.0000000000
     36046      3910  TIP3      H2            -18.1152408188      -39.7136585150       48.6984466641  TIP3      3710            0.0000000000
     36047      3911  TIP3      OH2           -18.9459206437      -25.0499544029       44.6288519501  TIP3      3711            0.0000000000
     36048      3911  TIP3      H1            -19.7879914662      -24.5765820358       44.6178352523  TIP3      3711            0.0000000000
     36049      3911  TIP3      H2            -18.4433069878      -24.5465774545       43.9834970742  TIP3      3711            0.0000000000
     36050      3912  TIP3      OH2           -10.9006356710      -23.9510699120       38.9497204922  TIP3      3712            0.0000000000
     36051      3912  TIP3      H1            -11.5845888383      -24.6141669866       39.1778753811  TIP3      3712            0.0000000000
     36052      3912  TIP3      H2            -10.1808242050      -24.5464930662       38.7005280521  TIP3      3712            0.0000000000
     36053      3913  TIP3      OH2            -6.3479027717      -24.2075444477       39.1368071684  TIP3      3713            0.0000000000
     36054      3913  TIP3      H1             -6.0518483808      -24.9830361850       39.6412230298  TIP3      3713            0.0000000000
     36055      3913  TIP3      H2             -5.5846036721      -23.9833370813       38.5847704792  TIP3      3713            0.0000000000
     36056      3914  TIP3      OH2           -15.4652519654      -28.2478617564       38.9703519917  TIP3      3714            0.0000000000
     36057      3914  TIP3      H1            -15.3253859007      -29.0175490954       39.5440535129  TIP3      3714            0.0000000000
     36058      3914  TIP3      H2            -14.7237035752      -28.3655337128       38.3422172092  TIP3      3714            0.0000000000
     36059      3915  TIP3      OH2           -10.0332021590      -27.1582855970       38.7325386133  TIP3      3715            0.0000000000
     36060      3915  TIP3      H1            -10.2959604709      -27.0747600359       39.6629793529  TIP3      3715            0.0000000000
     36061      3915  TIP3      H2            -10.2218291284      -28.1147698523       38.5894383216  TIP3      3715            0.0000000000
     36062      3916  TIP3      OH2           -14.2471494025      -30.2520812344       41.3784349898  TIP3      3716            0.0000000000
     36063      3916  TIP3      H1            -14.7585474423      -30.7765861732       42.0161755267  TIP3      3716            0.0000000000
     36064      3916  TIP3      H2            -13.9572784659      -30.9363070720       40.7420679054  TIP3      3716            0.0000000000
     36065      3917  TIP3      OH2           -13.1748999863      -32.1073485474       39.5816159429  TIP3      3717            0.0000000000
     36066      3917  TIP3      H1            -13.3361304437      -31.9857478608       38.6422140372  TIP3      3717            0.0000000000
     36067      3917  TIP3      H2            -12.2053919746      -31.9523285604       39.6882555961  TIP3      3717            0.0000000000
     36068      3918  TIP3      OH2            -3.8539138558      -29.7053802670       38.9930884543  TIP3      3718            0.0000000000
     36069      3918  TIP3      H1             -4.0444848526      -30.0858216529       38.1218876181  TIP3      3718            0.0000000000
     36070      3918  TIP3      H2             -3.7651031502      -28.7433898415       38.8076714523  TIP3      3718            0.0000000000
     36071      3919  TIP3      OH2           -13.3597593267      -21.3451229287       40.6418352756  TIP3      3719            0.0000000000
     36072      3919  TIP3      H1            -12.3928138325      -21.2385475826       40.7362325878  TIP3      3719            0.0000000000
     36073      3919  TIP3      H2            -13.4879372532      -20.7090023020       39.9264772152  TIP3      3719            0.0000000000
     36074      3920  TIP3      OH2           -19.7710657471      -26.7023473636       40.1016330696  TIP3      3720            0.0000000000
     36075      3920  TIP3      H1            -18.8180731049      -26.7252796379       40.3206122490  TIP3      3720            0.0000000000
     36076      3920  TIP3      H2            -19.7779425060      -27.3964067989       39.3917768067  TIP3      3720            0.0000000000
     36077      3921  TIP3      OH2           -21.0205709793      -21.3623621918       45.0816700989  TIP3      3721            0.0000000000
     36078      3921  TIP3      H1            -21.7382263356      -21.8620224650       44.6322796575  TIP3      3721            0.0000000000
     36079      3921  TIP3      H2            -20.7364881740      -22.0117992456       45.7555189443  TIP3      3721            0.0000000000
     36080      3922  TIP3      OH2           -20.2499595478      -23.2190036597       46.8910413989  TIP3      3722            0.0000000000
     36081      3922  TIP3      H1            -20.5221718192      -24.1185426136       47.1311922461  TIP3      3722            0.0000000000
     36082      3922  TIP3      H2            -19.9176773418      -22.9050289235       47.7738520073  TIP3      3722            0.0000000000
     36083      3923  TIP3      OH2            -3.3200616393      -28.7805209854       42.9433865341  TIP3      3723            0.0000000000
     36084      3923  TIP3      H1             -2.4523507926      -28.3911818211       43.1312142089  TIP3      3723            0.0000000000
     36085      3923  TIP3      H2             -3.3353590754      -29.5062196415       43.6049765482  TIP3      3723            0.0000000000
     36086      3924  TIP3      OH2            -2.9762496451      -30.7134944768       44.8197491338  TIP3      3724            0.0000000000
     36087      3924  TIP3      H1             -3.7115780162      -31.2046234462       45.2347579050  TIP3      3724            0.0000000000
     36088      3924  TIP3      H2             -2.3506742392      -30.5660415445       45.5643977633  TIP3      3724            0.0000000000
     36089      3925  TIP3      OH2            -3.0991163745      -27.7601323393       49.6939598883  TIP3      3725            0.0000000000
     36090      3925  TIP3      H1             -2.3007062474      -28.2704649997       49.4635204085  TIP3      3725            0.0000000000
     36091      3925  TIP3      H2             -2.9152197132      -26.8204473715       49.5684827473  TIP3      3725            0.0000000000
     36092      3926  TIP3      OH2            -2.6603618878      -30.8874180224       41.2282914356  TIP3      3726            0.0000000000
     36093      3926  TIP3      H1             -3.2266470635      -30.5469920303       40.5048972659  TIP3      3726            0.0000000000
     36094      3926  TIP3      H2             -2.7617635320      -30.1733309605       41.8848380706  TIP3      3726            0.0000000000
     36095      3927  TIP3      OH2            -4.2728298456      -33.6651657485       39.7336642298  TIP3      3727            0.0000000000
     36096      3927  TIP3      H1             -4.2140916156      -32.9942535930       39.0435938751  TIP3      3727            0.0000000000
     36097      3927  TIP3      H2             -4.4723542253      -34.4872706607       39.2440484724  TIP3      3727            0.0000000000
     36098      3928  TIP3      OH2            -5.1344440273      -32.2589624345       45.4449068312  TIP3      3728            0.0000000000
     36099      3928  TIP3      H1             -5.2740243165      -33.2053396984       45.3118259918  TIP3      3728            0.0000000000
     36100      3928  TIP3      H2             -5.4833984836      -32.0039226337       46.3127455670  TIP3      3728            0.0000000000
     36101      3929  TIP3      OH2           -20.1532639863      -30.0778181058       49.3406313923  TIP3      3729            0.0000000000
     36102      3929  TIP3      H1            -19.9173614488      -30.2457163934       48.4092257803  TIP3      3729            0.0000000000
     36103      3929  TIP3      H2            -19.3377665001      -30.3094006815       49.8196208373  TIP3      3729            0.0000000000
     36104      3930  TIP3      OH2            -5.0358205540      -36.1767735886       38.9182163247  TIP3      3730            0.0000000000
     36105      3930  TIP3      H1             -4.4393574447      -36.6564396573       39.5253418669  TIP3      3730            0.0000000000
     36106      3930  TIP3      H2             -5.8907819183      -36.6413738564       39.0029847110  TIP3      3730            0.0000000000
     36107      3931  TIP3      OH2            -5.4894967850      -34.6298409698       43.8866771790  TIP3      3731            0.0000000000
     36108      3931  TIP3      H1             -5.1740751937      -35.5634279368       43.9515852612  TIP3      3731            0.0000000000
     36109      3931  TIP3      H2             -4.6927726423      -34.2390949835       43.4861572088  TIP3      3731            0.0000000000
     36110      3932  TIP3      OH2            -4.8523882851      -33.9425872490       48.8924285688  TIP3      3732            0.0000000000
     36111      3932  TIP3      H1             -3.8797658517      -33.9501650638       49.1014294239  TIP3      3732            0.0000000000
     36112      3932  TIP3      H2             -5.1944347402      -34.0568773548       49.8153260999  TIP3      3732            0.0000000000
     36113      3933  TIP3      OH2            -4.8721487191      -37.3272635067       43.9523188795  TIP3      3733            0.0000000000
     36114      3933  TIP3      H1             -4.5978878062      -37.8313327007       44.7571924731  TIP3      3733            0.0000000000
     36115      3933  TIP3      H2             -5.3664109600      -38.0070388089       43.4421873324  TIP3      3733            0.0000000000
     36116      3934  TIP3      OH2           -19.3513606464      -36.5629150205       48.4559173169  TIP3      3734            0.0000000000
     36117      3934  TIP3      H1            -18.8986429481      -37.3785883997       48.7350294024  TIP3      3734            0.0000000000
     36118      3934  TIP3      H2            -18.7966638127      -35.8846522232       48.8762076280  TIP3      3734            0.0000000000
     36119      3935  TIP3      OH2           -21.0413777782      -33.5868123221       49.5169906993  TIP3      3735            0.0000000000
     36120      3935  TIP3      H1            -20.5068358258      -33.8164122047       48.7260129775  TIP3      3735            0.0000000000
     36121      3935  TIP3      H2            -20.6034390572      -32.7483365417       49.7448556493  TIP3      3735            0.0000000000
     36122      3936  TIP3      OH2            -2.9716618772      -37.3085730270       40.4813339858  TIP3      3736            0.0000000000
     36123      3936  TIP3      H1             -2.5828982042      -38.0425479935       39.9427631192  TIP3      3736            0.0000000000
     36124      3936  TIP3      H2             -2.2578781306      -36.6583070733       40.5018071233  TIP3      3736            0.0000000000
     36125      3937  TIP3      OH2           -20.6511416220      -37.2834431978       43.6264576805  TIP3      3737            0.0000000000
     36126      3937  TIP3      H1            -21.5937624450      -37.1279687746       43.4326443243  TIP3      3737            0.0000000000
     36127      3937  TIP3      H2            -20.2385440220      -36.8385403869       42.8657804377  TIP3      3737            0.0000000000
     36128      3938  TIP3      OH2            -5.9292155953      -22.3459685346       45.5240014433  TIP3      3738            0.0000000000
     36129      3938  TIP3      H1             -5.2520404997      -22.6475897470       44.8887381072  TIP3      3738            0.0000000000
     36130      3938  TIP3      H2             -5.4135604115      -21.8309265548       46.1642209602  TIP3      3738            0.0000000000
     36131      3939  TIP3      OH2           -18.9075717782      -22.7113360977       48.9893826796  TIP3      3739            0.0000000000
     36132      3939  TIP3      H1            -18.8163138174      -22.8336871824       49.9439321980  TIP3      3739            0.0000000000
     36133      3939  TIP3      H2            -17.9722311761      -22.8738595373       48.7546632145  TIP3      3739            0.0000000000
     36134      3940  TIP3      OH2           -16.6485631903      -23.8335328681       47.9095139039  TIP3      3740            0.0000000000
     36135      3940  TIP3      H1            -16.7782459291      -24.7841709674       48.0875099847  TIP3      3740            0.0000000000
     36136      3940  TIP3      H2            -15.7843877583      -23.7036160146       48.3487835808  TIP3      3740            0.0000000000
     36137      3941  TIP3      OH2           -14.0907622102      -23.3553444607       48.7598504123  TIP3      3741            0.0000000000
     36138      3941  TIP3      H1            -13.8641155825      -24.2628559902       48.4950554124  TIP3      3741            0.0000000000
     36139      3941  TIP3      H2            -14.0198503329      -23.4302271828       49.7172877681  TIP3      3741            0.0000000000
     36140      3942  TIP3      OH2           -10.5329503643      -37.6290793880       47.9591156070  TIP3      3742            0.0000000000
     36141      3942  TIP3      H1            -11.1913173267      -38.2856500533       48.2527498603  TIP3      3742            0.0000000000
     36142      3942  TIP3      H2            -10.0035293287      -38.1975039010       47.3804538917  TIP3      3742            0.0000000000
     36143      3943  TIP3      OH2            -5.4501279946      -38.7198326891       48.1595312445  TIP3      3743            0.0000000000
     36144      3943  TIP3      H1             -4.7669254526      -38.9557998510       47.4826903662  TIP3      3743            0.0000000000
     36145      3943  TIP3      H2             -6.2293698405      -39.2373479167       47.8832912110  TIP3      3743            0.0000000000
     36146      3944  TIP3      OH2            -3.7394898020      -38.3922902451       46.1890822235  TIP3      3744            0.0000000000
     36147      3944  TIP3      H1             -3.0649790789      -39.0449598849       45.9153009700  TIP3      3744            0.0000000000
     36148      3944  TIP3      H2             -3.2233629994      -37.5718217137       46.3263675190  TIP3      3744            0.0000000000
     36149      3945  TIP3      OH2           -18.2302542336      -39.1449136096       45.7539392036  TIP3      3745            0.0000000000
     36150      3945  TIP3      H1            -18.9888254876      -39.3286755217       45.1777644869  TIP3      3745            0.0000000000
     36151      3945  TIP3      H2            -17.7445551484      -39.9796461598       45.7244180473  TIP3      3745            0.0000000000
     36152      3946  TIP3      OH2           -19.3425526979      -39.2861207593       41.5831593099  TIP3      3746            0.0000000000
     36153      3946  TIP3      H1            -18.9726101690      -38.6863504368       40.9133941152  TIP3      3746            0.0000000000
     36154      3946  TIP3      H2            -20.0275000439      -38.7307019958       41.9755918197  TIP3      3746            0.0000000000
     36155      3947  TIP3      OH2           -13.8308056831      -38.7915682603       45.4168503019  TIP3      3747            0.0000000000
     36156      3947  TIP3      H1            -12.8676523587      -38.7059762729       45.3725019508  TIP3      3747            0.0000000000
     36157      3947  TIP3      H2            -13.8330487913      -39.2660698801       46.2498350471  TIP3      3747            0.0000000000
     36158      3948  TIP3      OH2            -8.1839685619      -39.0074548715       47.3615678535  TIP3      3748            0.0000000000
     36159      3948  TIP3      H1             -8.0906680873      -38.9755893029       46.3998337662  TIP3      3748            0.0000000000
     36160      3948  TIP3      H2             -8.3462118115      -39.9614739758       47.4520160800  TIP3      3748            0.0000000000
     36161      3949  TIP3      OH2            -6.7662447142      -39.0424439444       42.8761745080  TIP3      3749            0.0000000000
     36162      3949  TIP3      H1             -7.5350254973      -38.4741278377       42.7220333150  TIP3      3749            0.0000000000
     36163      3949  TIP3      H2             -7.1022376544      -39.9441722106       43.0057920697  TIP3      3749            0.0000000000
     36164      3950  TIP3      OH2           -19.4318069783      -23.3564178345       42.3996521083  TIP3      3750            0.0000000000
     36165      3950  TIP3      H1            -20.2292009977      -23.3784108092       41.8310777282  TIP3      3750            0.0000000000
     36166      3950  TIP3      H2            -19.5313663765      -22.4388120085       42.7150196875  TIP3      3750            0.0000000000
     36167      3951  TIP3      OH2           -17.6227773156      -37.4714580499       40.0152283247  TIP3      3751            0.0000000000
     36168      3951  TIP3      H1            -17.0585654765      -37.9923068055       39.4195770641  TIP3      3751            0.0000000000
     36169      3951  TIP3      H2            -16.9568640034      -37.0742057843       40.6156121129  TIP3      3751            0.0000000000
     36170      3952  TIP3      OH2           -12.6425502346      -37.1578143025       42.4670791502  TIP3      3752            0.0000000000
     36171      3952  TIP3      H1            -12.3079081980      -37.7271084871       43.1735462843  TIP3      3752            0.0000000000
     36172      3952  TIP3      H2            -12.5162866081      -36.2770232691       42.8833065903  TIP3      3752            0.0000000000
     36173      3953  TIP3      OH2           -10.6381064204      -22.0709496386       40.8537954739  TIP3      3753            0.0000000000
     36174      3953  TIP3      H1             -9.7194848390      -21.8467661982       40.6313929190  TIP3      3753            0.0000000000
     36175      3953  TIP3      H2            -10.8577124070      -22.5908662943       40.0520878639  TIP3      3753            0.0000000000
     36176      3954  TIP3      OH2            -3.9413281157      -22.5720405692       43.5717050728  TIP3      3754            0.0000000000
     36177      3954  TIP3      H1             -4.1354089070      -23.3543596719       43.0030090164  TIP3      3754            0.0000000000
     36178      3954  TIP3      H2             -4.0096972130      -21.8364649634       42.9288616883  TIP3      3754            0.0000000000
     36179      3955  TIP3      OH2           -17.7628709514      -22.3729193021       39.4461027176  TIP3      3755            0.0000000000
     36180      3955  TIP3      H1            -17.9954511436      -22.0023579599       40.3245466442  TIP3      3755            0.0000000000
     36181      3955  TIP3      H2            -16.8399530313      -22.6975851711       39.5078593899  TIP3      3755            0.0000000000
     36182      3956  TIP3      OH2             9.6721602092      -29.9423098483       45.6780580684  TIP3      3756            0.0000000000
     36183      3956  TIP3      H1              9.7651751489      -28.9690269747       45.5494419393  TIP3      3756            0.0000000000
     36184      3956  TIP3      H2              9.0525373161      -30.1455672671       44.9643350980  TIP3      3756            0.0000000000
     36185      3957  TIP3      OH2             8.6096206624      -30.6749378626       49.1283801712  TIP3      3757            0.0000000000
     36186      3957  TIP3      H1              8.5673568743      -31.3111985609       49.8781308475  TIP3      3757            0.0000000000
     36187      3957  TIP3      H2              8.3165572102      -31.1926056709       48.3758722424  TIP3      3757            0.0000000000
     36188      3958  TIP3      OH2            12.0529362141      -27.7481014822       47.3853089927  TIP3      3758            0.0000000000
     36189      3958  TIP3      H1             11.9898269277      -28.5712450910       47.9145161751  TIP3      3758            0.0000000000
     36190      3958  TIP3      H2             12.4540079892      -27.1259048947       48.0647401685  TIP3      3758            0.0000000000
     36191      3959  TIP3      OH2             1.8906243844      -26.4819264248       49.0560652284  TIP3      3759            0.0000000000
     36192      3959  TIP3      H1              1.5639373544      -27.3847862040       48.8740065702  TIP3      3759            0.0000000000
     36193      3959  TIP3      H2              2.8249442003      -26.7355112594       49.2177218027  TIP3      3759            0.0000000000
     36194      3960  TIP3      OH2            -1.4935201721      -33.0258072319       44.6985541913  TIP3      3760            0.0000000000
     36195      3960  TIP3      H1             -1.8876366468      -32.1382674923       44.5869398163  TIP3      3760            0.0000000000
     36196      3960  TIP3      H2             -2.0281684881      -33.5438450406       44.0824535378  TIP3      3760            0.0000000000
     36197      3961  TIP3      OH2            -0.7646118252      -30.7975818983       46.7734705762  TIP3      3761            0.0000000000
     36198      3961  TIP3      H1             -0.5091418390      -31.5962776570       47.2664419663  TIP3      3761            0.0000000000
     36199      3961  TIP3      H2             -0.0380998648      -30.6878100505       46.1503308547  TIP3      3761            0.0000000000
     36200      3962  TIP3      OH2             9.4098433301      -22.5872207901       47.6824283414  TIP3      3762            0.0000000000
     36201      3962  TIP3      H1             10.0754022414      -23.2421060650       47.3666541503  TIP3      3762            0.0000000000
     36202      3962  TIP3      H2              9.2218060774      -22.8881365953       48.5701152977  TIP3      3762            0.0000000000
     36203      3963  TIP3      OH2             7.0951978670      -28.1764201265       49.4980540813  TIP3      3763            0.0000000000
     36204      3963  TIP3      H1              7.3487572419      -28.9637016708       48.9984614446  TIP3      3763            0.0000000000
     36205      3963  TIP3      H2              7.7414125978      -28.2058270360       50.2093697302  TIP3      3763            0.0000000000
     36206      3964  TIP3      OH2            10.1735096459      -33.8341597928       49.8928499400  TIP3      3764            0.0000000000
     36207      3964  TIP3      H1             10.3331353539      -34.7996934003       49.9078441949  TIP3      3764            0.0000000000
     36208      3964  TIP3      H2             10.0848811741      -33.6845337921       48.9324186331  TIP3      3764            0.0000000000
     36209      3965  TIP3      OH2             3.3116482555      -35.7110847714       47.0774398697  TIP3      3765            0.0000000000
     36210      3965  TIP3      H1              3.3342679415      -34.8709798257       46.6015663574  TIP3      3765            0.0000000000
     36211      3965  TIP3      H2              2.8616458876      -36.3263911691       46.4547991420  TIP3      3765            0.0000000000
     36212      3966  TIP3      OH2            10.9835084435      -35.6420195094       45.4643246793  TIP3      3766            0.0000000000
     36213      3966  TIP3      H1             11.6087032009      -35.9724638676       46.1577064919  TIP3      3766            0.0000000000
     36214      3966  TIP3      H2             11.5901462893      -35.0747076609       44.9677973426  TIP3      3766            0.0000000000
     36215      3967  TIP3      OH2            -0.1389889198      -33.3528466677       47.8540249652  TIP3      3767            0.0000000000
     36216      3967  TIP3      H1              0.5503231714      -33.8813154221       48.3170559133  TIP3      3767            0.0000000000
     36217      3967  TIP3      H2              0.0097411340      -33.6435987243       46.9339144995  TIP3      3767            0.0000000000
     36218      3968  TIP3      OH2             5.1774321012      -31.8328839321       47.0296026623  TIP3      3768            0.0000000000
     36219      3968  TIP3      H1              5.6398175286      -32.4035202547       47.6688679577  TIP3      3768            0.0000000000
     36220      3968  TIP3      H2              4.4672990703      -32.4296629309       46.6942767341  TIP3      3768            0.0000000000
     36221      3969  TIP3      OH2             9.4045199150      -27.3677320713       44.7789040418  TIP3      3769            0.0000000000
     36222      3969  TIP3      H1              9.2364788569      -27.6172168930       43.8541256769  TIP3      3769            0.0000000000
     36223      3969  TIP3      H2              9.1478038239      -26.4156592447       44.7617207076  TIP3      3769            0.0000000000
     36224      3970  TIP3      OH2            12.7111934084      -36.2497826032       47.4871675509  TIP3      3770            0.0000000000
     36225      3970  TIP3      H1             12.6409956033      -37.0750859249       48.0119287182  TIP3      3770            0.0000000000
     36226      3970  TIP3      H2             13.4460400197      -35.8686898305       47.9988998708  TIP3      3770            0.0000000000
     36227      3971  TIP3      OH2             1.7217953137      -34.9217529748       49.0795292933  TIP3      3771            0.0000000000
     36228      3971  TIP3      H1              2.3172046286      -34.2975754835       49.4878326475  TIP3      3771            0.0000000000
     36229      3971  TIP3      H2              2.2832436030      -35.4242255876       48.4546693652  TIP3      3771            0.0000000000
     36230      3972  TIP3      OH2            -0.7860037735      -27.5748066337       43.0197590409  TIP3      3772            0.0000000000
     36231      3972  TIP3      H1             -1.0382564498      -27.2358218060       42.1425080664  TIP3      3772            0.0000000000
     36232      3972  TIP3      H2             -0.7093849445      -26.7488297379       43.5357522357  TIP3      3772            0.0000000000
     36233      3973  TIP3      OH2            12.8042908436      -26.1856646118       49.2410335020  TIP3      3773            0.0000000000
     36234      3973  TIP3      H1             12.1116615870      -26.0377021487       49.9208859858  TIP3      3773            0.0000000000
     36235      3973  TIP3      H2             13.2582888105      -25.3505941265       49.4533514070  TIP3      3773            0.0000000000
     36236      3974  TIP3      OH2             6.2088679813      -39.3596704892       48.5684748171  TIP3      3774            0.0000000000
     36237      3974  TIP3      H1              6.0890506270      -40.3127383419       48.7872322018  TIP3      3774            0.0000000000
     36238      3974  TIP3      H2              5.3445473420      -39.0886474526       48.9226472088  TIP3      3774            0.0000000000
     36239      3975  TIP3      OH2            11.0557232795      -24.1393450682       46.3614709503  TIP3      3775            0.0000000000
     36240      3975  TIP3      H1             11.5162949830      -24.8174353037       45.8165445218  TIP3      3775            0.0000000000
     36241      3975  TIP3      H2             11.4822488581      -23.3247470918       46.0105499234  TIP3      3775            0.0000000000
     36242      3976  TIP3      OH2            12.2322201987      -26.1684758963       44.9161089979  TIP3      3776            0.0000000000
     36243      3976  TIP3      H1             12.0144495050      -26.8743870214       44.2818495793  TIP3      3776            0.0000000000
     36244      3976  TIP3      H2             12.3644419676      -26.6862238581       45.7241811391  TIP3      3776            0.0000000000
     36245      3977  TIP3      OH2             8.3838528674      -30.7302090088       43.1563647540  TIP3      3777            0.0000000000
     36246      3977  TIP3      H1              7.7186981472      -30.1225984425       42.7707310774  TIP3      3777            0.0000000000
     36247      3977  TIP3      H2              9.1058075227      -30.6143955289       42.4970175664  TIP3      3777            0.0000000000
     36248      3978  TIP3      OH2             8.4750174915      -32.1532065506       40.1848910920  TIP3      3778            0.0000000000
     36249      3978  TIP3      H1              9.2195172035      -32.1460390957       40.8010597467  TIP3      3778            0.0000000000
     36250      3978  TIP3      H2              8.7801035925      -32.8506646799       39.5897097750  TIP3      3778            0.0000000000
     36251      3979  TIP3      OH2            11.8412621891      -30.5113762515       44.0567452973  TIP3      3779            0.0000000000
     36252      3979  TIP3      H1             11.1124266848      -30.2628460258       44.6586951699  TIP3      3779            0.0000000000
     36253      3979  TIP3      H2             12.3446982559      -31.1819967079       44.5523274332  TIP3      3779            0.0000000000
     36254      3980  TIP3      OH2             3.4788743393      -29.8250742320       45.9660534959  TIP3      3780            0.0000000000
     36255      3980  TIP3      H1              3.1111885012      -30.2149273602       45.1358182125  TIP3      3780            0.0000000000
     36256      3980  TIP3      H2              4.0728708481      -30.5275285189       46.2762032031  TIP3      3780            0.0000000000
     36257      3981  TIP3      OH2             4.8736719351      -26.3872919662       48.6118150711  TIP3      3781            0.0000000000
     36258      3981  TIP3      H1              4.7718966562      -26.9724914869       47.8472345295  TIP3      3781            0.0000000000
     36259      3981  TIP3      H2              5.5617887047      -26.8278547879       49.1330077366  TIP3      3781            0.0000000000
     36260      3982  TIP3      OH2             3.7100947303      -31.0378636762       49.4687283190  TIP3      3782            0.0000000000
     36261      3982  TIP3      H1              4.3400772604      -30.8911071586       48.7648947497  TIP3      3782            0.0000000000
     36262      3982  TIP3      H2              4.1115024898      -30.5546700639       50.2133324343  TIP3      3782            0.0000000000
     36263      3983  TIP3      OH2            10.7108998815      -31.2786793974       41.7491213118  TIP3      3783            0.0000000000
     36264      3983  TIP3      H1             11.3040314934      -31.1180926520       42.5257135107  TIP3      3783            0.0000000000
     36265      3983  TIP3      H2             11.1665471582      -30.8096761764       41.0124801191  TIP3      3783            0.0000000000
     36266      3984  TIP3      OH2             8.4366553037      -24.6065591059       45.2161937235  TIP3      3784            0.0000000000
     36267      3984  TIP3      H1              8.8754767781      -24.2340891522       45.9830470073  TIP3      3784            0.0000000000
     36268      3984  TIP3      H2              7.8839631696      -23.8568865999       44.9373851023  TIP3      3784            0.0000000000
     36269      3985  TIP3      OH2            14.4482194250      -39.5439665101       41.6339232418  TIP3      3785            0.0000000000
     36270      3985  TIP3      H1             13.5267176812      -39.4355332380       41.9103355105  TIP3      3785            0.0000000000
     36271      3985  TIP3      H2             14.6562590719      -38.7261337765       41.1657105965  TIP3      3785            0.0000000000
     36272      3986  TIP3      OH2             2.4371804296      -30.8322349623       43.6155507227  TIP3      3786            0.0000000000
     36273      3986  TIP3      H1              2.1632362292      -30.0425322517       43.1041764606  TIP3      3786            0.0000000000
     36274      3986  TIP3      H2              1.7767582781      -31.4802858607       43.3599938375  TIP3      3786            0.0000000000
     36275      3987  TIP3      OH2            15.5202043216      -25.1859638758       40.1704971652  TIP3      3787            0.0000000000
     36276      3987  TIP3      H1             15.7500235019      -24.2471312590       40.1376444963  TIP3      3787            0.0000000000
     36277      3987  TIP3      H2             16.3948816739      -25.5394206467       39.8984831961  TIP3      3787            0.0000000000
     36278      3988  TIP3      OH2            -1.6498224412      -25.4819463284       49.0691702729  TIP3      3788            0.0000000000
     36279      3988  TIP3      H1             -0.7456042461      -25.7638613494       49.2650499058  TIP3      3788            0.0000000000
     36280      3988  TIP3      H2             -1.8291627416      -24.8180576171       49.7415276282  TIP3      3788            0.0000000000
     36281      3989  TIP3      OH2             7.9300334401      -21.6703078893       43.6123535105  TIP3      3789            0.0000000000
     36282      3989  TIP3      H1              7.8128063961      -21.7439494984       42.6485739007  TIP3      3789            0.0000000000
     36283      3989  TIP3      H2              7.9266247736      -20.7081468768       43.7684410198  TIP3      3789            0.0000000000
     36284      3990  TIP3      OH2             1.5799108860      -22.8034433512       45.4086119361  TIP3      3790            0.0000000000
     36285      3990  TIP3      H1              1.7120042470      -23.2169261596       46.2854342200  TIP3      3790            0.0000000000
     36286      3990  TIP3      H2              0.7154181801      -23.1879072905       45.1919078039  TIP3      3790            0.0000000000
     36287      3991  TIP3      OH2            10.9699639243      -22.4409582425       40.5999060914  TIP3      3791            0.0000000000
     36288      3991  TIP3      H1             11.4318624852      -23.1939728683       40.1614190991  TIP3      3791            0.0000000000
     36289      3991  TIP3      H2             11.0155863384      -22.7050971640       41.5441011790  TIP3      3791            0.0000000000
     36290      3992  TIP3      OH2            10.6736911182      -22.5064469532       43.3642681472  TIP3      3792            0.0000000000
     36291      3992  TIP3      H1              9.7114682964      -22.4396150396       43.5393717960  TIP3      3792            0.0000000000
     36292      3992  TIP3      H2             10.9147483133      -23.2500298610       43.9334957580  TIP3      3792            0.0000000000
     36293      3993  TIP3      OH2             3.5835523020      -38.1254256428       48.8508664674  TIP3      3793            0.0000000000
     36294      3993  TIP3      H1              2.7592912399      -38.6624003630       48.8699913998  TIP3      3793            0.0000000000
     36295      3993  TIP3      H2              3.4985865844      -37.8157118775       49.7647024249  TIP3      3793            0.0000000000
     36296      3994  TIP3      OH2            12.1957387378      -30.2661831642       39.5541144915  TIP3      3794            0.0000000000
     36297      3994  TIP3      H1             12.1582355698      -30.4490481367       38.5868609924  TIP3      3794            0.0000000000
     36298      3994  TIP3      H2             13.0503831115      -29.8067605974       39.5851341676  TIP3      3794            0.0000000000
     36299      3995  TIP3      OH2             7.7997853003      -36.3734330401       40.0688875583  TIP3      3795            0.0000000000
     36300      3995  TIP3      H1              7.4632742824      -36.4210941241       40.9776782346  TIP3      3795            0.0000000000
     36301      3995  TIP3      H2              7.4591144752      -37.2337678160       39.7452132506  TIP3      3795            0.0000000000
     36302      3996  TIP3      OH2             3.5630668249      -33.4684717264       45.4508018012  TIP3      3796            0.0000000000
     36303      3996  TIP3      H1              2.6225534099      -33.7594936832       45.3736348723  TIP3      3796            0.0000000000
     36304      3996  TIP3      H2              3.8977300137      -33.8003703611       44.5913549686  TIP3      3796            0.0000000000
     36305      3997  TIP3      OH2             9.0144041878      -32.9598831031       44.2910068805  TIP3      3797            0.0000000000
     36306      3997  TIP3      H1              8.7261015799      -32.1444898113       43.8231542309  TIP3      3797            0.0000000000
     36307      3997  TIP3      H2              9.7367064229      -33.2066600605       43.6683844065  TIP3      3797            0.0000000000
     36308      3998  TIP3      OH2            10.0100666250      -33.5404738023       47.1050796640  TIP3      3798            0.0000000000
     36309      3998  TIP3      H1              9.9305809221      -32.9473984350       46.3455399432  TIP3      3798            0.0000000000
     36310      3998  TIP3      H2             10.2508344366      -34.3788466601       46.6479236189  TIP3      3798            0.0000000000
     36311      3999  TIP3      OH2             4.5769947019      -35.9353977570       39.1723389190  TIP3      3799            0.0000000000
     36312      3999  TIP3      H1              4.1352270867      -36.3944619178       39.9141736724  TIP3      3799            0.0000000000
     36313      3999  TIP3      H2              3.8522500287      -35.5603839543       38.6583588215  TIP3      3799            0.0000000000
     36314      4000  TIP3      OH2            -2.1704108223      -36.2064222722       46.2519663357  TIP3      3800            0.0000000000
     36315      4000  TIP3      H1             -1.4887796199      -36.2456938249       46.9615716196  TIP3      3800            0.0000000000
     36316      4000  TIP3      H2             -1.6981442433      -36.6179140663       45.5025538398  TIP3      3800            0.0000000000
     36317      4001  TIP3      OH2            -0.8614107089      -35.5382941579       41.6770483286  TIP3      3801            0.0000000000
     36318      4001  TIP3      H1             -0.3493786752      -34.9544376787       41.0846764128  TIP3      3801            0.0000000000
     36319      4001  TIP3      H2             -1.5512362238      -34.9105472602       41.9782866429  TIP3      3801            0.0000000000
     36320      4002  TIP3      OH2             6.1345863511      -35.8372181152       46.5325675241  TIP3      3802            0.0000000000
     36321      4002  TIP3      H1              5.2018204151      -36.0319655527       46.7705862801  TIP3      3802            0.0000000000
     36322      4002  TIP3      H2              6.5916081722      -36.1679829041       47.3225559266  TIP3      3802            0.0000000000
     36323      4003  TIP3      OH2             0.9418018251      -34.3860471855       45.3335509591  TIP3      3803            0.0000000000
     36324      4003  TIP3      H1              0.0346821936      -34.2600908927       44.9832313224  TIP3      3803            0.0000000000
     36325      4003  TIP3      H2              1.2092242858      -35.2497759238       44.9763179795  TIP3      3803            0.0000000000
     36326      4004  TIP3      OH2             4.5658515787      -34.3228545094       43.0414110448  TIP3      3804            0.0000000000
     36327      4004  TIP3      H1              5.5341093360      -34.2710052795       43.1202585240  TIP3      3804            0.0000000000
     36328      4004  TIP3      H2              4.3144912855      -33.6938362007       42.3357587553  TIP3      3804            0.0000000000
     36329      4005  TIP3      OH2            10.5121623953      -36.7672343301       49.6261761660  TIP3      3805            0.0000000000
     36330      4005  TIP3      H1              9.9108983359      -36.6743003735       50.3812348049  TIP3      3805            0.0000000000
     36331      4005  TIP3      H2              9.9174294327      -37.0357129579       48.9166756149  TIP3      3805            0.0000000000
     36332      4006  TIP3      OH2             3.2661484841      -33.1806774851       40.5892061298  TIP3      3806            0.0000000000
     36333      4006  TIP3      H1              2.7336116518      -33.5591820729       39.8691421027  TIP3      3806            0.0000000000
     36334      4006  TIP3      H2              4.0842532103      -32.9698667209       40.1133128748  TIP3      3806            0.0000000000
     36335      4007  TIP3      OH2             7.3371698322      -33.2703647437       48.3151960043  TIP3      3807            0.0000000000
     36336      4007  TIP3      H1              8.0301067594      -33.8054474514       47.8901370381  TIP3      3807            0.0000000000
     36337      4007  TIP3      H2              7.2633502935      -33.7480398416       49.1619986615  TIP3      3807            0.0000000000
     36338      4008  TIP3      OH2             2.3927883993      -37.0817839092       44.8625000005  TIP3      3808            0.0000000000
     36339      4008  TIP3      H1              2.0560484613      -37.9901250241       44.8113177828  TIP3      3808            0.0000000000
     36340      4008  TIP3      H2              3.1785875447      -37.1371101347       44.2960316891  TIP3      3808            0.0000000000
     36341      4009  TIP3      OH2             6.6317836463      -28.6870685668       42.5296002346  TIP3      3809            0.0000000000
     36342      4009  TIP3      H1              5.8119967015      -29.0987502599       42.1653488518  TIP3      3809            0.0000000000
     36343      4009  TIP3      H2              6.3751776745      -28.4851716566       43.4507776653  TIP3      3809            0.0000000000
     36344      4010  TIP3      OH2            10.4388067803      -35.8489304274       40.7440282325  TIP3      3810            0.0000000000
     36345      4010  TIP3      H1              9.4977351482      -35.6713489474       40.5493368559  TIP3      3810            0.0000000000
     36346      4010  TIP3      H2             10.7868080996      -34.9778628004       41.0322455443  TIP3      3810            0.0000000000
     36347      4011  TIP3      OH2            11.1495498676      -33.8873321063       42.3274684730  TIP3      3811            0.0000000000
     36348      4011  TIP3      H1             12.0430621067      -34.0274914084       42.7174099179  TIP3      3811            0.0000000000
     36349      4011  TIP3      H2             11.2903202922      -33.0932727253       41.7859963086  TIP3      3811            0.0000000000
     36350      4012  TIP3      OH2             1.6233657741      -29.3016631775       48.2703301284  TIP3      3812            0.0000000000
     36351      4012  TIP3      H1              2.3708605893      -29.3038741578       47.6527937868  TIP3      3812            0.0000000000
     36352      4012  TIP3      H2              1.8044493901      -30.1157387479       48.7568205178  TIP3      3812            0.0000000000
     36353      4013  TIP3      OH2             8.7070452883      -27.1779775882       41.5453802209  TIP3      3813            0.0000000000
     36354      4013  TIP3      H1              8.3647060314      -26.3312911765       41.9003850215  TIP3      3813            0.0000000000
     36355      4013  TIP3      H2              7.9773122521      -27.7949674710       41.7724279193  TIP3      3813            0.0000000000
     36356      4014  TIP3      OH2            16.0784083073      -33.7706525661       42.0881146505  TIP3      3814            0.0000000000
     36357      4014  TIP3      H1             15.5217911201      -34.0692734710       41.3440163679  TIP3      3814            0.0000000000
     36358      4014  TIP3      H2             16.1600422973      -32.8230173789       41.8313765270  TIP3      3814            0.0000000000
     36359      4015  TIP3      OH2            14.2999852391      -24.9354323711       42.5159681749  TIP3      3815            0.0000000000
     36360      4015  TIP3      H1             14.0150196390      -25.7964753150       42.8246232600  TIP3      3815            0.0000000000
     36361      4015  TIP3      H2             14.6912244568      -25.1353790033       41.6373865292  TIP3      3815            0.0000000000
     36362      4016  TIP3      OH2            11.2320125615      -30.0329293939       48.8776142422  TIP3      3816            0.0000000000
     36363      4016  TIP3      H1             10.5115575979      -30.2925092506       49.4894198044  TIP3      3816            0.0000000000
     36364      4016  TIP3      H2             11.7803899848      -30.8547041688       48.8594433142  TIP3      3816            0.0000000000
     36365      4017  TIP3      OH2             4.0984623101      -25.7970157970       45.7029174141  TIP3      3817            0.0000000000
     36366      4017  TIP3      H1              4.6041650637      -24.9907691666       45.5078414055  TIP3      3817            0.0000000000
     36367      4017  TIP3      H2              3.2238537766      -25.5659725710       45.3637593035  TIP3      3817            0.0000000000
     36368      4018  TIP3      OH2            -0.1328468948      -30.9578462542       40.2677148794  TIP3      3818            0.0000000000
     36369      4018  TIP3      H1              0.4442668732      -30.2901574298       40.6767135584  TIP3      3818            0.0000000000
     36370      4018  TIP3      H2             -1.0235024337      -30.6440828386       40.5143891554  TIP3      3818            0.0000000000
     36371      4019  TIP3      OH2             5.5459846079      -28.1229912143       45.2519765845  TIP3      3819            0.0000000000
     36372      4019  TIP3      H1              5.1949660192      -27.2089119576       45.3028230148  TIP3      3819            0.0000000000
     36373      4019  TIP3      H2              4.7838152398      -28.5959130762       45.6362356586  TIP3      3819            0.0000000000
     36374      4020  TIP3      OH2             4.2020250842      -23.1278312608       44.7233925694  TIP3      3820            0.0000000000
     36375      4020  TIP3      H1              3.2343248504      -22.9976402329       44.8629332484  TIP3      3820            0.0000000000
     36376      4020  TIP3      H2              4.5581108156      -22.3009244160       45.0980606106  TIP3      3820            0.0000000000
     36377      4021  TIP3      OH2            11.8071864506      -26.8851017868       40.3256698073  TIP3      3821            0.0000000000
     36378      4021  TIP3      H1             12.1345731016      -27.3461712975       41.1220198559  TIP3      3821            0.0000000000
     36379      4021  TIP3      H2             10.8568618674      -27.0658373856       40.4244326756  TIP3      3821            0.0000000000
     36380      4022  TIP3      OH2            16.2969380228      -22.5084222946       40.6068322511  TIP3      3822            0.0000000000
     36381      4022  TIP3      H1             16.9825014581      -21.8565863986       40.3699709547  TIP3      3822            0.0000000000
     36382      4022  TIP3      H2             15.5739077812      -21.9026361057       40.8749224101  TIP3      3822            0.0000000000
     36383      4023  TIP3      OH2            12.6041074320      -28.2401911402       42.5782537744  TIP3      3823            0.0000000000
     36384      4023  TIP3      H1             12.3696660480      -29.0351327901       43.1017784227  TIP3      3823            0.0000000000
     36385      4023  TIP3      H2             13.5609083345      -28.1976913690       42.7526437600  TIP3      3823            0.0000000000
     36386      4024  TIP3      OH2             5.9593587203      -25.8004122435       38.8282893901  TIP3      3824            0.0000000000
     36387      4024  TIP3      H1              6.0542103847      -26.5632917054       38.2345674857  TIP3      3824            0.0000000000
     36388      4024  TIP3      H2              5.5130784079      -26.2308872936       39.5894529955  TIP3      3824            0.0000000000
     36389      4025  TIP3      OH2             4.7264792831      -26.2743950995       41.2805013123  TIP3      3825            0.0000000000
     36390      4025  TIP3      H1              4.9970535346      -26.7869033435       42.0508467114  TIP3      3825            0.0000000000
     36391      4025  TIP3      H2              4.8175431303      -25.3475904629       41.6022674055  TIP3      3825            0.0000000000
     36392      4026  TIP3      OH2             1.2705365721      -29.0288800354       41.7606597448  TIP3      3826            0.0000000000
     36393      4026  TIP3      H1              0.5565468728      -28.6331278571       42.3010484481  TIP3      3826            0.0000000000
     36394      4026  TIP3      H2              1.7750060278      -28.2478436130       41.4697161888  TIP3      3826            0.0000000000
     36395      4027  TIP3      OH2             9.8886861810      -36.7820309095       43.2176076796  TIP3      3827            0.0000000000
     36396      4027  TIP3      H1             10.0658546425      -36.3073673949       42.3731544652  TIP3      3827            0.0000000000
     36397      4027  TIP3      H2             10.4404834299      -36.2796025173       43.8355397636  TIP3      3827            0.0000000000
     36398      4028  TIP3      OH2             7.5327245304      -24.6115773853       41.9749174769  TIP3      3828            0.0000000000
     36399      4028  TIP3      H1              6.7147621129      -24.0790495895       42.0468669893  TIP3      3828            0.0000000000
     36400      4028  TIP3      H2              8.0714468877      -24.0602407257       41.3890960522  TIP3      3828            0.0000000000
     36401      4029  TIP3      OH2             7.0197116128      -34.9228306913       44.0076018119  TIP3      3829            0.0000000000
     36402      4029  TIP3      H1              7.8987696586      -34.5063502064       44.0246464693  TIP3      3829            0.0000000000
     36403      4029  TIP3      H2              6.8229636788      -35.2410173393       44.9136828495  TIP3      3829            0.0000000000
     36404      4030  TIP3      OH2             7.8959498370      -37.9564784721       44.9055279982  TIP3      3830            0.0000000000
     36405      4030  TIP3      H1              7.5952132265      -37.3002645858       45.5503241899  TIP3      3830            0.0000000000
     36406      4030  TIP3      H2              8.5972730481      -37.4609536660       44.4272385438  TIP3      3830            0.0000000000
     36407      4031  TIP3      OH2             4.9371579654      -23.5776996419       42.0056180311  TIP3      3831            0.0000000000
     36408      4031  TIP3      H1              5.0260889149      -22.7632681001       41.4538152164  TIP3      3831            0.0000000000
     36409      4031  TIP3      H2              4.6628109371      -23.2111489096       42.8753716210  TIP3      3831            0.0000000000
     36410      4032  TIP3      OH2             3.5518014873      -36.8131435376       41.5654766411  TIP3      3832            0.0000000000
     36411      4032  TIP3      H1              3.5229564733      -35.9237821485       41.9653357115  TIP3      3832            0.0000000000
     36412      4032  TIP3      H2              4.4579123541      -37.0765841756       41.8290259114  TIP3      3832            0.0000000000
     36413      4033  TIP3      OH2            12.3536490152      -32.2637850839       47.9770076678  TIP3      3833            0.0000000000
     36414      4033  TIP3      H1             11.5778134458      -32.7991864983       47.7603793061  TIP3      3833            0.0000000000
     36415      4033  TIP3      H2             12.8754317787      -32.9563563961       48.4575577347  TIP3      3833            0.0000000000
     36416      4034  TIP3      OH2             1.8127414066      -26.4188350226       40.6210565636  TIP3      3834            0.0000000000
     36417      4034  TIP3      H1              2.4804697659      -25.7914933537       40.9338787207  TIP3      3834            0.0000000000
     36418      4034  TIP3      H2              2.3376680227      -26.8826819094       39.9384044400  TIP3      3834            0.0000000000
     36419      4035  TIP3      OH2             0.1575468153      -33.7447582678       39.7561053674  TIP3      3835            0.0000000000
     36420      4035  TIP3      H1              0.1780059037      -32.7895950839       39.9813774211  TIP3      3835            0.0000000000
     36421      4035  TIP3      H2             -0.7391939389      -33.9098894924       39.4614974508  TIP3      3835            0.0000000000
     36422      4036  TIP3      OH2            13.7684649325      -22.8745528698       49.5725399392  TIP3      3836            0.0000000000
     36423      4036  TIP3      H1             13.5999188122      -22.1747734282       48.8974745792  TIP3      3836            0.0000000000
     36424      4036  TIP3      H2             14.7051872267      -22.8311808993       49.7733079128  TIP3      3836            0.0000000000
     36425      4037  TIP3      OH2             0.9467408103      -38.8043273932       48.4040864657  TIP3      3837            0.0000000000
     36426      4037  TIP3      H1              0.7981997218      -38.9031629779       47.4476601032  TIP3      3837            0.0000000000
     36427      4037  TIP3      H2              0.8075050097      -39.6882778219       48.7346374113  TIP3      3837            0.0000000000
     36428      4038  TIP3      OH2            -0.0712537536      -25.0359189053       44.6593095970  TIP3      3838            0.0000000000
     36429      4038  TIP3      H1             -0.9224524953      -24.5840308586       44.5987564168  TIP3      3838            0.0000000000
     36430      4038  TIP3      H2              0.4060781602      -24.5730343740       43.9567577209  TIP3      3838            0.0000000000
     36431      4039  TIP3      OH2             7.9578397993      -23.9458573436       38.9440779905  TIP3      3839            0.0000000000
     36432      4039  TIP3      H1              7.2614017866      -24.6046652116       39.1755115716  TIP3      3839            0.0000000000
     36433      4039  TIP3      H2              8.6723122610      -24.5523486367       38.7023900609  TIP3      3839            0.0000000000
     36434      4040  TIP3      OH2            12.5120490256      -24.2037316998       39.1394071755  TIP3      3840            0.0000000000
     36435      4040  TIP3      H1             12.8104545177      -24.9825336274       39.6365234354  TIP3      3840            0.0000000000
     36436      4040  TIP3      H2             13.2807010101      -24.0126189450       38.5788402546  TIP3      3840            0.0000000000
     36437      4041  TIP3      OH2             3.3968435492      -28.2648083421       38.9564134812  TIP3      3841            0.0000000000
     36438      4041  TIP3      H1              3.5349431337      -29.0265644079       39.5391622516  TIP3      3841            0.0000000000
     36439      4041  TIP3      H2              4.1441287349      -28.3848002249       38.3377324023  TIP3      3841            0.0000000000
     36440      4042  TIP3      OH2             8.8254172682      -27.1570687626       38.7331330163  TIP3      3842            0.0000000000
     36441      4042  TIP3      H1              8.5551224830      -27.0761846922       39.6613233142  TIP3      3842            0.0000000000
     36442      4042  TIP3      H2              8.6356880401      -28.1142430378       38.5884801441  TIP3      3842            0.0000000000
     36443      4043  TIP3      OH2             4.6183966440      -30.2468906050       41.3931563674  TIP3      3843            0.0000000000
     36444      4043  TIP3      H1              4.0713465256      -30.7827620293       41.9884338748  TIP3      3843            0.0000000000
     36445      4043  TIP3      H2              4.8869124887      -30.9110304846       40.7143295787  TIP3      3843            0.0000000000
     36446      4044  TIP3      OH2             5.6717609364      -32.0244976071       39.5821405628  TIP3      3844            0.0000000000
     36447      4044  TIP3      H1              5.5232041265      -32.1128578780       38.6192836420  TIP3      3844            0.0000000000
     36448      4044  TIP3      H2              6.6477356818      -31.9734234593       39.6541595283  TIP3      3844            0.0000000000
     36449      4045  TIP3      OH2            14.9814621136      -29.6973876417       39.0126216921  TIP3      3845            0.0000000000
     36450      4045  TIP3      H1             14.8219791679      -30.0825086694       38.1434559643  TIP3      3845            0.0000000000
     36451      4045  TIP3      H2             15.1177867840      -28.7374394705       38.8189166952  TIP3      3845            0.0000000000
     36452      4046  TIP3      OH2             5.5042497957      -21.3221836741       40.6626647430  TIP3      3846            0.0000000000
     36453      4046  TIP3      H1              6.4713226738      -21.2394113083       40.7299249131  TIP3      3846            0.0000000000
     36454      4046  TIP3      H2              5.3576575594      -20.7224209070       39.9215253444  TIP3      3846            0.0000000000
     36455      4047  TIP3      OH2            -0.9442632106      -26.7524016658       40.1318011181  TIP3      3847            0.0000000000
     36456      4047  TIP3      H1              0.0229474571      -26.6568970152       40.3106974042  TIP3      3847            0.0000000000
     36457      4047  TIP3      H2             -0.8934547945      -27.3944642484       39.3840883948  TIP3      3847            0.0000000000
     36458      4048  TIP3      OH2            -2.1664606827      -21.3586571458       45.0818953780  TIP3      3848            0.0000000000
     36459      4048  TIP3      H1             -2.8792219364      -21.8642519623       44.6323194222  TIP3      3848            0.0000000000
     36460      4048  TIP3      H2             -1.8779709809      -22.0122166708       45.7490244837  TIP3      3848            0.0000000000
     36461      4049  TIP3      OH2            -1.4180088778      -23.2355560898       46.8619358500  TIP3      3849            0.0000000000
     36462      4049  TIP3      H1             -1.6720066921      -24.1318609669       47.1233270499  TIP3      3849            0.0000000000
     36463      4049  TIP3      H2             -1.0874406105      -22.9043571342       47.7380080130  TIP3      3849            0.0000000000
     36464      4050  TIP3      OH2            15.5214852658      -28.7803317028       42.9680823141  TIP3      3850            0.0000000000
     36465      4050  TIP3      H1             16.4034073891      -28.3956754969       43.1063195500  TIP3      3850            0.0000000000
     36466      4050  TIP3      H2             15.5318237870      -29.5168482950       43.6159876609  TIP3      3850            0.0000000000
     36467      4051  TIP3      OH2            15.8803555047      -30.7030723914       44.8227728941  TIP3      3851            0.0000000000
     36468      4051  TIP3      H1             15.1440173507      -31.2091176287       45.2282191252  TIP3      3851            0.0000000000
     36469      4051  TIP3      H2             16.5011922509      -30.5807289560       45.5739052053  TIP3      3851            0.0000000000
     36470      4052  TIP3      OH2            15.7251744754      -27.7530770061       49.6529796428  TIP3      3852            0.0000000000
     36471      4052  TIP3      H1             16.5297101550      -28.2773678263       49.4706508321  TIP3      3852            0.0000000000
     36472      4052  TIP3      H2             15.9705186114      -26.8191191169       49.5939356765  TIP3      3852            0.0000000000
     36473      4053  TIP3      OH2            16.1798097246      -30.8921719242       41.2199473986  TIP3      3853            0.0000000000
     36474      4053  TIP3      H1             15.6381629371      -30.5297810962       40.4873931510  TIP3      3853            0.0000000000
     36475      4053  TIP3      H2             16.1046927706      -30.1651652891       41.8657416675  TIP3      3853            0.0000000000
     36476      4054  TIP3      OH2            14.5686962431      -33.6482599305       39.7314113271  TIP3      3854            0.0000000000
     36477      4054  TIP3      H1             14.6441532840      -32.9813806217       39.0364681303  TIP3      3854            0.0000000000
     36478      4054  TIP3      H2             14.3871356327      -34.4806003280       39.2484811349  TIP3      3854            0.0000000000
     36479      4055  TIP3      OH2            13.7169315515      -32.2469103352       45.4376364557  TIP3      3855            0.0000000000
     36480      4055  TIP3      H1             13.5777448409      -33.2053643128       45.3725952943  TIP3      3855            0.0000000000
     36481      4055  TIP3      H2             13.3681755306      -32.0452897647       46.3229949566  TIP3      3855            0.0000000000
     36482      4056  TIP3      OH2            -1.2982668942      -30.0755009844       49.3404491113  TIP3      3856            0.0000000000
     36483      4056  TIP3      H1             -1.0679337742      -30.2499060678       48.4076740740  TIP3      3856            0.0000000000
     36484      4056  TIP3      H2             -0.4825204722      -30.3097846944       49.8174764971  TIP3      3856            0.0000000000
     36485      4057  TIP3      OH2            13.8236568081      -36.1952593643       38.8998078323  TIP3      3857            0.0000000000
     36486      4057  TIP3      H1             14.4157373744      -36.6572037729       39.5251228252  TIP3      3857            0.0000000000
     36487      4057  TIP3      H2             12.9630180473      -36.6434410402       39.0043341640  TIP3      3857            0.0000000000
     36488      4058  TIP3      OH2            13.3561278166      -34.6432826489       43.8138994358  TIP3      3858            0.0000000000
     36489      4058  TIP3      H1             13.6807369983      -35.5550298395       43.9885899869  TIP3      3858            0.0000000000
     36490      4058  TIP3      H2             14.1778922300      -34.2325454649       43.5107004044  TIP3      3858            0.0000000000
     36491      4059  TIP3      OH2            13.9857962613      -33.9615747042       48.8673110053  TIP3      3859            0.0000000000
     36492      4059  TIP3      H1             14.9459619055      -33.9671884085       49.0657641920  TIP3      3859            0.0000000000
     36493      4059  TIP3      H2             13.6205583248      -34.0714328505       49.7748394441  TIP3      3859            0.0000000000
     36494      4060  TIP3      OH2            14.0285678288      -37.3533311754       43.9202291676  TIP3      3860            0.0000000000
     36495      4060  TIP3      H1             14.2469951773      -37.8105221013       44.7685976955  TIP3      3860            0.0000000000
     36496      4060  TIP3      H2             13.4770963097      -38.0153976085       43.4528317111  TIP3      3860            0.0000000000
     36497      4061  TIP3      OH2            -0.5076826436      -36.5503510885       48.4540738148  TIP3      3861            0.0000000000
     36498      4061  TIP3      H1             -0.0469157385      -37.3703306072       48.7261077223  TIP3      3861            0.0000000000
     36499      4061  TIP3      H2              0.0701396249      -35.8965713994       48.8856318203  TIP3      3861            0.0000000000
     36500      4062  TIP3      OH2            -2.2080953570      -33.5826502586       49.4928180351  TIP3      3862            0.0000000000
     36501      4062  TIP3      H1             -1.6249121149      -33.8178398161       48.7358818527  TIP3      3862            0.0000000000
     36502      4062  TIP3      H2             -1.7429581291      -32.7635219162       49.7547432164  TIP3      3862            0.0000000000
     36503      4063  TIP3      OH2            15.8841518848      -37.3074736519       40.4815809383  TIP3      3863            0.0000000000
     36504      4063  TIP3      H1             16.2736028511      -38.0427089109       39.9450460353  TIP3      3863            0.0000000000
     36505      4063  TIP3      H2             16.5985556949      -36.6584872248       40.5032547246  TIP3      3863            0.0000000000
     36506      4064  TIP3      OH2            -1.7937246529      -37.2829223669       43.6232825219  TIP3      3864            0.0000000000
     36507      4064  TIP3      H1             -2.7320166481      -37.1334504912       43.4179881106  TIP3      3864            0.0000000000
     36508      4064  TIP3      H2             -1.3785456272      -36.8367179926       42.8647613869  TIP3      3864            0.0000000000
     36509      4065  TIP3      OH2            12.9254912498      -22.3473221403       45.5232145521  TIP3      3865            0.0000000000
     36510      4065  TIP3      H1             13.6043119382      -22.6488827223       44.8889166511  TIP3      3865            0.0000000000
     36511      4065  TIP3      H2             13.4402948882      -21.8326764949       46.1631569750  TIP3      3865            0.0000000000
     36512      4066  TIP3      OH2            -0.0788266089      -22.6206916280       48.9038536164  TIP3      3866            0.0000000000
     36513      4066  TIP3      H1             -0.0519937841      -22.8719900150       49.8462649637  TIP3      3866            0.0000000000
     36514      4066  TIP3      H2              0.8352742316      -22.9150418967       48.6961370976  TIP3      3866            0.0000000000
     36515      4067  TIP3      OH2             2.1880576535      -23.8189687003       47.9704194927  TIP3      3867            0.0000000000
     36516      4067  TIP3      H1              2.0638895172      -24.7851149953       48.0729769598  TIP3      3867            0.0000000000
     36517      4067  TIP3      H2              3.0932945346      -23.7414015911       48.3260345377  TIP3      3867            0.0000000000
     36518      4068  TIP3      OH2             4.7375201226      -23.3521343458       48.7973747600  TIP3      3868            0.0000000000
     36519      4068  TIP3      H1              4.9755189794      -24.2428871338       48.4726666948  TIP3      3868            0.0000000000
     36520      4068  TIP3      H2              4.8868782055      -23.4859923696       49.7308391358  TIP3      3868            0.0000000000
     36521      4069  TIP3      OH2             8.2803427343      -37.6184955581       47.9409074397  TIP3      3869            0.0000000000
     36522      4069  TIP3      H1              7.6486027126      -38.2967680164       48.2470059259  TIP3      3869            0.0000000000
     36523      4069  TIP3      H2              8.8581526085      -38.1734046452       47.3930758226  TIP3      3869            0.0000000000
     36524      4070  TIP3      OH2            13.4115516337      -38.7239650754       48.1655149408  TIP3      3870            0.0000000000
     36525      4070  TIP3      H1             14.0858229650      -38.9302065625       47.4706449170  TIP3      3870            0.0000000000
     36526      4070  TIP3      H2             12.6216650889      -39.2095582499       47.8748818658  TIP3      3870            0.0000000000
     36527      4071  TIP3      OH2            15.1145864479      -38.4109194722       46.1968137355  TIP3      3871            0.0000000000
     36528      4071  TIP3      H1             15.8009062413      -39.0375556814       45.9084414901  TIP3      3871            0.0000000000
     36529      4071  TIP3      H2             15.6069730671      -37.5702925088       46.3320177171  TIP3      3871            0.0000000000
     36530      4072  TIP3      OH2             0.6225909160      -39.1542797069       45.7274286231  TIP3      3872            0.0000000000
     36531      4072  TIP3      H1             -0.1395977078      -39.3459460688       45.1580310617  TIP3      3872            0.0000000000
     36532      4072  TIP3      H2              1.1138588535      -39.9862535374       45.7230734438  TIP3      3872            0.0000000000
     36533      4073  TIP3      OH2            -0.4866911461      -39.2862297865       41.5823001112  TIP3      3873            0.0000000000
     36534      4073  TIP3      H1             -0.1165603925      -38.6867299575       40.9126979142  TIP3      3873            0.0000000000
     36535      4073  TIP3      H2             -1.1707288797      -38.7302921688       41.9753022339  TIP3      3873            0.0000000000
     36536      4074  TIP3      OH2             5.0243822568      -38.7906629157       45.4291110042  TIP3      3874            0.0000000000
     36537      4074  TIP3      H1              5.9890530198      -38.7117597363       45.3875806844  TIP3      3874            0.0000000000
     36538      4074  TIP3      H2              5.0036941139      -39.2473430888       46.2776841300  TIP3      3874            0.0000000000
     36539      4075  TIP3      OH2            10.6420899977      -39.0277344800       47.3693565123  TIP3      3875            0.0000000000
     36540      4075  TIP3      H1             10.7862340587      -38.9673929997       46.4148091460  TIP3      3875            0.0000000000
     36541      4075  TIP3      H2             10.5004131653      -39.9827721263       47.4434077314  TIP3      3875            0.0000000000
     36542      4076  TIP3      OH2            12.0901065611      -39.0405586263       42.8781956388  TIP3      3876            0.0000000000
     36543      4076  TIP3      H1             11.3216458721      -38.4765124616       42.7184519467  TIP3      3876            0.0000000000
     36544      4076  TIP3      H2             11.7540962279      -39.9436093444       43.0056702437  TIP3      3876            0.0000000000
     36545      4077  TIP3      OH2            -0.6567682975      -23.3840684962       42.5207996095  TIP3      3877            0.0000000000
     36546      4077  TIP3      H1             -1.3121470285      -23.3982329012       41.7981605614  TIP3      3877            0.0000000000
     36547      4077  TIP3      H2             -0.6591624792      -22.4286242907       42.6914058081  TIP3      3877            0.0000000000
     36548      4078  TIP3      OH2             1.2329206466      -37.4667250265       40.0067133063  TIP3      3878            0.0000000000
     36549      4078  TIP3      H1              1.7975894694      -37.9953513113       39.4197321894  TIP3      3878            0.0000000000
     36550      4078  TIP3      H2              1.8945840735      -37.0732232583       40.6127801676  TIP3      3878            0.0000000000
     36551      4079  TIP3      OH2             6.2199419836      -37.1413471036       42.4737508400  TIP3      3879            0.0000000000
     36552      4079  TIP3      H1              6.5558448315      -37.7203526155       43.1723869099  TIP3      3879            0.0000000000
     36553      4079  TIP3      H2              6.3308726099      -36.2701333462       42.8908488448  TIP3      3879            0.0000000000
     36554      4080  TIP3      OH2             8.2182460498      -22.0701578269       40.8525847944  TIP3      3880            0.0000000000
     36555      4080  TIP3      H1              9.1373841329      -21.8469388658       40.6315396068  TIP3      3880            0.0000000000
     36556      4080  TIP3      H2              7.9985095412      -22.5915443903       40.0522922557  TIP3      3880            0.0000000000
     36557      4081  TIP3      OH2            14.9174926570      -22.5710270495       43.5709276942  TIP3      3881            0.0000000000
     36558      4081  TIP3      H1             14.7226402110      -23.3557978645       43.0046827585  TIP3      3881            0.0000000000
     36559      4081  TIP3      H2             14.8473664687      -21.8368607269       42.9275694312  TIP3      3881            0.0000000000
     36560      4082  TIP3      OH2             1.1370965181      -22.3941162027       39.4532489865  TIP3      3882            0.0000000000
     36561      4082  TIP3      H1              0.8810545248      -22.1380211285       40.3523816168  TIP3      3882            0.0000000000
     36562      4082  TIP3      H2              1.9194919060      -22.9581476822       39.6119648858  TIP3      3882            0.0000000000
     36563      4083  TIP3      OH2            28.6054571868      -29.9506740385       45.6610038233  TIP3      3883            0.0000000000
     36564      4083  TIP3      H1             28.5865974474      -28.9679573170       45.5810320208  TIP3      3883            0.0000000000
     36565      4083  TIP3      H2             27.8922821531      -30.1734054932       45.0367280739  TIP3      3883            0.0000000000
     36566      4084  TIP3      OH2            27.5259450818      -30.7000034742       49.1344309133  TIP3      3884            0.0000000000
     36567      4084  TIP3      H1             27.3919053673      -31.3398207971       49.8617507580  TIP3      3884            0.0000000000
     36568      4084  TIP3      H2             27.1505303048      -31.1511780488       48.3624975547  TIP3      3884            0.0000000000
     36569      4085  TIP3      OH2            31.1686282390      -27.8345204957       47.4309259718  TIP3      3885            0.0000000000
     36570      4085  TIP3      H1             30.6375449394      -28.5037517176       47.8855043051  TIP3      3885            0.0000000000
     36571      4085  TIP3      H2             31.1381505906      -27.0399232301       48.0167121097  TIP3      3885            0.0000000000
     36572      4086  TIP3      OH2            20.7323231469      -26.4982157063       49.0628767107  TIP3      3886            0.0000000000
     36573      4086  TIP3      H1             20.4287664627      -27.4063930982       48.8654263809  TIP3      3886            0.0000000000
     36574      4086  TIP3      H2             21.6766465352      -26.7242290388       49.2184773592  TIP3      3886            0.0000000000
     36575      4087  TIP3      OH2            17.3770801615      -33.0175839309       44.6780331730  TIP3      3887            0.0000000000
     36576      4087  TIP3      H1             16.9568098839      -32.1429845155       44.6017587521  TIP3      3887            0.0000000000
     36577      4087  TIP3      H2             16.8132007325      -33.5525430381       44.1027801062  TIP3      3887            0.0000000000
     36578      4088  TIP3      OH2            18.0582959784      -30.8026306621       46.7711445531  TIP3      3888            0.0000000000
     36579      4088  TIP3      H1             18.3401952833      -31.5915463069       47.2661192816  TIP3      3888            0.0000000000
     36580      4088  TIP3      H2             18.7991762160      -30.6814719912       46.1586478785  TIP3      3888            0.0000000000
     36581      4089  TIP3      OH2            28.2753202862      -22.5735280371       47.6943516087  TIP3      3889            0.0000000000
     36582      4089  TIP3      H1             28.9085858773      -23.2492299485       47.3515567678  TIP3      3889            0.0000000000
     36583      4089  TIP3      H2             28.0771776879      -22.9209229509       48.5644236644  TIP3      3889            0.0000000000
     36584      4090  TIP3      OH2            25.9000326162      -28.2219052575       49.5609200460  TIP3      3890            0.0000000000
     36585      4090  TIP3      H1             26.2112997706      -28.9225296769       48.9668877892  TIP3      3890            0.0000000000
     36586      4090  TIP3      H2             26.6380681276      -28.1686003255       50.1719103737  TIP3      3890            0.0000000000
     36587      4091  TIP3      OH2            29.0232334140      -33.8406200850       49.9099938151  TIP3      3891            0.0000000000
     36588      4091  TIP3      H1             29.1979307633      -34.7982127878       49.8842776100  TIP3      3891            0.0000000000
     36589      4091  TIP3      H2             28.9221732065      -33.6703058575       48.9466590368  TIP3      3891            0.0000000000
     36590      4092  TIP3      OH2            22.1357051262      -35.7273439077       47.1303761019  TIP3      3892            0.0000000000
     36591      4092  TIP3      H1             22.2290293688      -34.8845001376       46.6409928271  TIP3      3892            0.0000000000
     36592      4092  TIP3      H2             21.7379095424      -36.3123466183       46.4435822429  TIP3      3892            0.0000000000
     36593      4093  TIP3      OH2            29.8560932691      -35.6870083675       45.4375815701  TIP3      3893            0.0000000000
     36594      4093  TIP3      H1             30.4696757069      -35.9647564729       46.1610632434  TIP3      3893            0.0000000000
     36595      4093  TIP3      H2             30.4263117441      -35.0596865787       44.9742402061  TIP3      3893            0.0000000000
     36596      4094  TIP3      OH2            18.7278351490      -33.3637858364       47.8591178446  TIP3      3894            0.0000000000
     36597      4094  TIP3      H1             19.4117553041      -33.8905425797       48.3133160177  TIP3      3894            0.0000000000
     36598      4094  TIP3      H2             18.8653824722      -33.6416460134       46.9325888619  TIP3      3894            0.0000000000
     36599      4095  TIP3      OH2            23.9079606211      -31.7849219737       47.1623208643  TIP3      3895            0.0000000000
     36600      4095  TIP3      H1             24.5785603173      -32.3685485526       47.5606458525  TIP3      3895            0.0000000000
     36601      4095  TIP3      H2             23.3850417314      -32.4288735331       46.6425827321  TIP3      3895            0.0000000000
     36602      4096  TIP3      OH2            28.1945075698      -27.4204690048       44.8043381871  TIP3      3896            0.0000000000
     36603      4096  TIP3      H1             28.1341968727      -27.6016730001       43.8594820447  TIP3      3896            0.0000000000
     36604      4096  TIP3      H2             28.1008627436      -26.4410945782       44.7666561388  TIP3      3896            0.0000000000
     36605      4097  TIP3      OH2            31.5658765734      -36.2481427822       47.4897149025  TIP3      3897            0.0000000000
     36606      4097  TIP3      H1             31.4976326394      -37.0756074233       48.0110337144  TIP3      3897            0.0000000000
     36607      4097  TIP3      H2             32.3030931953      -35.8689899261       47.9990864460  TIP3      3897            0.0000000000
     36608      4098  TIP3      OH2            20.6446481526      -35.0225794213       49.1874688979  TIP3      3898            0.0000000000
     36609      4098  TIP3      H1             21.1359198237      -34.2419450060       49.4405177894  TIP3      3898            0.0000000000
     36610      4098  TIP3      H2             21.1189841922      -35.3874980326       48.4105200412  TIP3      3898            0.0000000000
     36611      4099  TIP3      OH2            18.0597737682      -27.5817801889       43.0359515738  TIP3      3899            0.0000000000
     36612      4099  TIP3      H1             17.8374131023      -27.2506533695       42.1331253013  TIP3      3899            0.0000000000
     36613      4099  TIP3      H2             18.1424765405      -26.7400594228       43.5205765916  TIP3      3899            0.0000000000
     36614      4100  TIP3      OH2            31.7078288382      -26.1747563412       49.3185073498  TIP3      3900            0.0000000000
     36615      4100  TIP3      H1             30.8947066437      -25.9393249949       49.8263225443  TIP3      3900            0.0000000000
     36616      4100  TIP3      H2             32.0924242451      -25.2867709643       49.4252358453  TIP3      3900            0.0000000000
     36617      4101  TIP3      OH2            25.0520180648      -39.3866228434       48.6046190506  TIP3      3901            0.0000000000
     36618      4101  TIP3      H1             24.9725329544      -40.3565275157       48.7451189753  TIP3      3901            0.0000000000
     36619      4101  TIP3      H2             24.1791546584      -39.1591744270       48.9532710578  TIP3      3901            0.0000000000
     36620      4102  TIP3      OH2            29.9532710392      -24.1371955138       46.4069948633  TIP3      3902            0.0000000000
     36621      4102  TIP3      H1             30.3100456176      -24.8226324784       45.8015964513  TIP3      3902            0.0000000000
     36622      4102  TIP3      H2             30.3315096820      -23.3395508948       45.9787326212  TIP3      3902            0.0000000000
     36623      4103  TIP3      OH2            31.3259029731      -26.2354425612       44.9729944698  TIP3      3903            0.0000000000
     36624      4103  TIP3      H1             30.8219541180      -26.7674596085       44.3210026072  TIP3      3903            0.0000000000
     36625      4103  TIP3      H2             31.1636210102      -26.7296544596       45.7813877228  TIP3      3903            0.0000000000
     36626      4104  TIP3      OH2            27.2501944222      -30.7468275440       43.1330363717  TIP3      3904            0.0000000000
     36627      4104  TIP3      H1             26.5839710221      -30.1194393638       42.7908244763  TIP3      3904            0.0000000000
     36628      4104  TIP3      H2             27.9655893828      -30.6034630866       42.4843900508  TIP3      3904            0.0000000000
     36629      4105  TIP3      OH2            27.3421190824      -32.1342020536       40.1538772204  TIP3      3905            0.0000000000
     36630      4105  TIP3      H1             28.0502522197      -32.1538964349       40.8151153075  TIP3      3905            0.0000000000
     36631      4105  TIP3      H2             27.6502967655      -32.8450066065       39.5809109946  TIP3      3905            0.0000000000
     36632      4106  TIP3      OH2            30.7068691670      -30.5297031187       44.0515833768  TIP3      3906            0.0000000000
     36633      4106  TIP3      H1             29.9738356885      -30.2455403729       44.6468053302  TIP3      3906            0.0000000000
     36634      4106  TIP3      H2             31.1848714337      -31.1858811337       44.5811759238  TIP3      3906            0.0000000000
     36635      4107  TIP3      OH2            22.3044543875      -29.8402922617       45.9826031371  TIP3      3907            0.0000000000
     36636      4107  TIP3      H1             21.9852361872      -30.2207285929       45.1305272070  TIP3      3907            0.0000000000
     36637      4107  TIP3      H2             22.9490425605      -30.5226033106       46.2721190562  TIP3      3907            0.0000000000
     36638      4108  TIP3      OH2            23.7036348102      -26.3914380489       48.6317647177  TIP3      3908            0.0000000000
     36639      4108  TIP3      H1             23.6456548370      -26.9533737419       47.8427852130  TIP3      3908            0.0000000000
     36640      4108  TIP3      H2             24.4274617660      -26.8172520934       49.1241075883  TIP3      3908            0.0000000000
     36641      4109  TIP3      OH2            22.5684457709      -31.0553690719       49.5081046390  TIP3      3909            0.0000000000
     36642      4109  TIP3      H1             23.1768329937      -30.9411763002       48.7633032295  TIP3      3909            0.0000000000
     36643      4109  TIP3      H2             22.9952026439      -30.5316145538       50.2041021520  TIP3      3909            0.0000000000
     36644      4110  TIP3      OH2            29.5901219037      -31.2877649773       41.7235800691  TIP3      3910            0.0000000000
     36645      4110  TIP3      H1             30.1411180392      -31.1020214075       42.5262140756  TIP3      3910            0.0000000000
     36646      4110  TIP3      H2             30.0350259685      -30.7755187998       41.0102015161  TIP3      3910            0.0000000000
     36647      4111  TIP3      OH2            27.1318811613      -24.6046196958       45.3422853734  TIP3      3911            0.0000000000
     36648      4111  TIP3      H1             27.7662367012      -24.2577692812       45.9667016469  TIP3      3911            0.0000000000
     36649      4111  TIP3      H2             26.7679527747      -23.8163436961       44.9294809254  TIP3      3911            0.0000000000
     36650      4112  TIP3      OH2            33.2997076281      -39.5435480727       41.6326430534  TIP3      3912            0.0000000000
     36651      4112  TIP3      H1             32.3793985034      -39.4242525413       41.9122839142  TIP3      3912            0.0000000000
     36652      4112  TIP3      H2             33.5150082652      -38.7259663088       41.1667150612  TIP3      3912            0.0000000000
     36653      4113  TIP3      OH2            21.2666523213      -30.8124752001       43.6195642428  TIP3      3913            0.0000000000
     36654      4113  TIP3      H1             20.9925849975      -30.0377293371       43.0767486217  TIP3      3913            0.0000000000
     36655      4113  TIP3      H2             20.6374982501      -31.4873958766       43.3598746720  TIP3      3913            0.0000000000
     36656      4114  TIP3      OH2            34.4427188506      -25.2159501794       39.9672009412  TIP3      3914            0.0000000000
     36657      4114  TIP3      H1             34.5921022674      -24.2729459278       40.1532125609  TIP3      3914            0.0000000000
     36658      4114  TIP3      H2             35.3690365437      -25.5227563829       39.9706251261  TIP3      3914            0.0000000000
     36659      4115  TIP3      OH2            17.2157120225      -25.4801982885       49.0754295477  TIP3      3915            0.0000000000
     36660      4115  TIP3      H1             18.1237127865      -25.7579198175       49.2575981041  TIP3      3915            0.0000000000
     36661      4115  TIP3      H2             17.0369467531      -24.8078137076       49.7378015567  TIP3      3915            0.0000000000
     36662      4116  TIP3      OH2            26.7819194804      -21.6869936366       43.6175181207  TIP3      3916            0.0000000000
     36663      4116  TIP3      H1             26.6921876304      -21.7661329236       42.6525842943  TIP3      3916            0.0000000000
     36664      4116  TIP3      H2             26.7989244421      -20.7224984841       43.7648942457  TIP3      3916            0.0000000000
     36665      4117  TIP3      OH2            20.4342636466      -22.7996275358       45.4122838295  TIP3      3917            0.0000000000
     36666      4117  TIP3      H1             20.5757833154      -23.2044746471       46.2957415639  TIP3      3917            0.0000000000
     36667      4117  TIP3      H2             19.5713428034      -23.1902343812       45.1954006200  TIP3      3917            0.0000000000
     36668      4118  TIP3      OH2            29.8802843496      -22.4297385238       40.6149719073  TIP3      3918            0.0000000000
     36669      4118  TIP3      H1             30.2753165657      -23.2184039639       40.1779452676  TIP3      3918            0.0000000000
     36670      4118  TIP3      H2             29.8550910126      -22.7520590888       41.5433521100  TIP3      3918            0.0000000000
     36671      4119  TIP3      OH2            29.5327723513      -22.3698127409       43.4891460164  TIP3      3919            0.0000000000
     36672      4119  TIP3      H1             28.5661242490      -22.4642635054       43.5085617911  TIP3      3919            0.0000000000
     36673      4119  TIP3      H2             29.7485801659      -23.2748678510       43.8128655696  TIP3      3919            0.0000000000
     36674      4120  TIP3      OH2            22.2680636402      -38.5066410079       49.3849236061  TIP3      3920            0.0000000000
     36675      4120  TIP3      H1             21.4116043039      -38.6553950912       48.9134695208  TIP3      3920            0.0000000000
     36676      4120  TIP3      H2             22.1845354239      -37.6464313601       49.7744703843  TIP3      3920            0.0000000000
     36677      4121  TIP3      OH2            31.0376980933      -30.2698567825       39.5520201245  TIP3      3921            0.0000000000
     36678      4121  TIP3      H1             31.0120152905      -30.4508840800       38.5841222866  TIP3      3921            0.0000000000
     36679      4121  TIP3      H2             31.8923761668      -29.8175346607       39.5967946887  TIP3      3921            0.0000000000
     36680      4122  TIP3      OH2            26.6530263882      -36.3725411289       40.0675821568  TIP3      3922            0.0000000000
     36681      4122  TIP3      H1             26.3194045072      -36.4226406843       40.9773620273  TIP3      3922            0.0000000000
     36682      4122  TIP3      H2             26.3166651802      -37.2349024567       39.7449064376  TIP3      3922            0.0000000000
     36683      4123  TIP3      OH2            22.4031953515      -33.5167448017       45.4811551174  TIP3      3923            0.0000000000
     36684      4123  TIP3      H1             21.4636858816      -33.7573979565       45.3519103483  TIP3      3923            0.0000000000
     36685      4123  TIP3      H2             22.7780215817      -33.7844595501       44.6167574387  TIP3      3923            0.0000000000
     36686      4124  TIP3      OH2            27.9294425882      -33.0065284799       44.2652800288  TIP3      3924            0.0000000000
     36687      4124  TIP3      H1             27.5323451866      -32.1800547368       43.9012693787  TIP3      3924            0.0000000000
     36688      4124  TIP3      H2             28.6254241073      -33.1789305588       43.6083667069  TIP3      3924            0.0000000000
     36689      4125  TIP3      OH2            28.9513593982      -33.5292546767       47.1173043199  TIP3      3925            0.0000000000
     36690      4125  TIP3      H1             28.7061697705      -32.9529292101       46.3677118487  TIP3      3925            0.0000000000
     36691      4125  TIP3      H2             29.0800827404      -34.3711017350       46.6323272378  TIP3      3925            0.0000000000
     36692      4126  TIP3      OH2            23.4331835649      -35.9376699083       39.1712317280  TIP3      3926            0.0000000000
     36693      4126  TIP3      H1             22.9914314585      -36.3945662085       39.9145866167  TIP3      3926            0.0000000000
     36694      4126  TIP3      H2             22.7114062102      -35.5570122249       38.6596157604  TIP3      3926            0.0000000000
     36695      4127  TIP3      OH2            16.7113098714      -36.2295826509       46.2621095973  TIP3      3927            0.0000000000
     36696      4127  TIP3      H1             17.3783116884      -36.2521994244       46.9772716097  TIP3      3927            0.0000000000
     36697      4127  TIP3      H2             17.1706998204      -36.6267489966       45.5016956903  TIP3      3927            0.0000000000
     36698      4128  TIP3      OH2            17.9952730803      -35.5370266192       41.6768917585  TIP3      3928            0.0000000000
     36699      4128  TIP3      H1             18.5070150439      -34.9541343161       41.0846176728  TIP3      3928            0.0000000000
     36700      4128  TIP3      H2             17.3048814789      -34.9093464878       41.9776657041  TIP3      3928            0.0000000000
     36701      4129  TIP3      OH2            24.9784153310      -35.9295795922       46.5072715086  TIP3      3929            0.0000000000
     36702      4129  TIP3      H1             24.0431080602      -35.9966137067       46.7740201450  TIP3      3929            0.0000000000
     36703      4129  TIP3      H2             25.4626299582      -36.1347676821       47.3156087278  TIP3      3929            0.0000000000
     36704      4130  TIP3      OH2            19.7963808492      -34.4062345695       45.3605977847  TIP3      3930            0.0000000000
     36705      4130  TIP3      H1             18.9029161104      -34.2605130341       44.9876864195  TIP3      3930            0.0000000000
     36706      4130  TIP3      H2             20.0692834473      -35.2561047626       44.9736983825  TIP3      3930            0.0000000000
     36707      4131  TIP3      OH2            23.4171331194      -34.3594207156       43.0065126211  TIP3      3931            0.0000000000
     36708      4131  TIP3      H1             24.3747370892      -34.2495083140       43.1597924476  TIP3      3931            0.0000000000
     36709      4131  TIP3      H2             23.1801636625      -33.6749756165       42.3500667005  TIP3      3931            0.0000000000
     36710      4132  TIP3      OH2            29.3653392463      -36.7593464517       49.6243835522  TIP3      3932            0.0000000000
     36711      4132  TIP3      H1             28.7808428857      -36.6768068694       50.3840763450  TIP3      3932            0.0000000000
     36712      4132  TIP3      H2             28.7759270972      -37.0395433212       48.9131090994  TIP3      3932            0.0000000000
     36713      4133  TIP3      OH2            22.1223339726      -33.1773915205       40.5911302254  TIP3      3933            0.0000000000
     36714      4133  TIP3      H1             21.5934197533      -33.5684026684       39.8752554014  TIP3      3933            0.0000000000
     36715      4133  TIP3      H2             22.9431840196      -32.9700689934       40.1162131523  TIP3      3933            0.0000000000
     36716      4134  TIP3      OH2            26.2010310789      -33.2555506392       48.3935078840  TIP3      3934            0.0000000000
     36717      4134  TIP3      H1             26.8405923984      -33.7403445811       47.8394996701  TIP3      3934            0.0000000000
     36718      4134  TIP3      H2             26.1645022526      -33.7925689910       49.1851367365  TIP3      3934            0.0000000000
     36719      4135  TIP3      OH2            21.2661194471      -37.0904704841       44.8888477779  TIP3      3935            0.0000000000
     36720      4135  TIP3      H1             20.9105917299      -37.9902924486       44.8098834830  TIP3      3935            0.0000000000
     36721      4135  TIP3      H2             22.0318806180      -37.1385158792       44.2936431358  TIP3      3935            0.0000000000
     36722      4136  TIP3      OH2            25.4778202614      -28.6825620448       42.5182649943  TIP3      3936            0.0000000000
     36723      4136  TIP3      H1             24.6604145401      -29.1170437825       42.1829026772  TIP3      3936            0.0000000000
     36724      4136  TIP3      H2             25.2557651044      -28.5026371653       43.4547350855  TIP3      3936            0.0000000000
     36725      4137  TIP3      OH2            29.2930179808      -35.8496854321       40.7348028117  TIP3      3937            0.0000000000
     36726      4137  TIP3      H1             28.3521359550      -35.6713563587       40.5484526909  TIP3      3937            0.0000000000
     36727      4137  TIP3      H2             29.6446527391      -34.9812110683       41.0321076974  TIP3      3937            0.0000000000
     36728      4138  TIP3      OH2            30.0379979349      -33.9136011373       42.2986611667  TIP3      3938            0.0000000000
     36729      4138  TIP3      H1             30.9169954601      -34.0226631014       42.7180057776  TIP3      3938            0.0000000000
     36730      4138  TIP3      H2             30.1318493533      -33.0830538112       41.8015400108  TIP3      3938            0.0000000000
     36731      4139  TIP3      OH2            20.4904240920      -29.3013210325       48.2626601029  TIP3      3939            0.0000000000
     36732      4139  TIP3      H1             21.2356098335      -29.3192051697       47.6357561702  TIP3      3939            0.0000000000
     36733      4139  TIP3      H2             20.6635746974      -30.1121243784       48.7560674033  TIP3      3939            0.0000000000
     36734      4140  TIP3      OH2            27.4737176947      -27.2163561014       41.3990147544  TIP3      3940            0.0000000000
     36735      4140  TIP3      H1             27.3515732910      -26.3743879451       41.9019621257  TIP3      3940            0.0000000000
     36736      4140  TIP3      H2             26.8008976519      -27.7950670486       41.8010500210  TIP3      3940            0.0000000000
     36737      4141  TIP3      OH2            34.9381991415      -33.7799320935       42.0906102340  TIP3      3941            0.0000000000
     36738      4141  TIP3      H1             34.3807575293      -34.0802228152       41.3483030767  TIP3      3941            0.0000000000
     36739      4141  TIP3      H2             35.0040012258      -32.8311447215       41.8264787148  TIP3      3941            0.0000000000
     36740      4142  TIP3      OH2            33.2648450785      -24.9552972236       42.5189695099  TIP3      3942            0.0000000000
     36741      4142  TIP3      H1             32.8105423246      -25.7473789750       42.8383971440  TIP3      3942            0.0000000000
     36742      4142  TIP3      H2             33.5321692562      -25.1692440765       41.6128414130  TIP3      3942            0.0000000000
     36743      4143  TIP3      OH2            30.1595309627      -30.0065514702       48.9338962568  TIP3      3943            0.0000000000
     36744      4143  TIP3      H1             29.3314023083      -30.2825078775       49.3990688328  TIP3      3943            0.0000000000
     36745      4143  TIP3      H2             30.6114876260      -30.8789250499       48.8208087411  TIP3      3943            0.0000000000
     36746      4144  TIP3      OH2            22.9447391650      -25.7970651892       45.7210461069  TIP3      3944            0.0000000000
     36747      4144  TIP3      H1             23.4543216031      -24.9937350660       45.5047685064  TIP3      3944            0.0000000000
     36748      4144  TIP3      H2             22.0778180881      -25.5678884883       45.3656201254  TIP3      3944            0.0000000000
     36749      4145  TIP3      OH2            18.7298306642      -30.9949262194       40.3150848408  TIP3      3945            0.0000000000
     36750      4145  TIP3      H1             19.2989068062      -30.2924368690       40.6732539270  TIP3      3945            0.0000000000
     36751      4145  TIP3      H2             17.8414528340      -30.6305739858       40.4900028119  TIP3      3945            0.0000000000
     36752      4146  TIP3      OH2            24.3635072150      -28.1219237255       45.1906365252  TIP3      3946            0.0000000000
     36753      4146  TIP3      H1             24.0671771794      -27.2040858811       45.3185101326  TIP3      3946            0.0000000000
     36754      4146  TIP3      H2             23.6473855256      -28.6086394893       45.6366929514  TIP3      3946            0.0000000000
     36755      4147  TIP3      OH2            23.0532704756      -23.1327235964       44.7465036986  TIP3      3947            0.0000000000
     36756      4147  TIP3      H1             22.0892957468      -22.9974980296       44.8698115727  TIP3      3947            0.0000000000
     36757      4147  TIP3      H2             23.4136322783      -22.2981128127       45.1021587663  TIP3      3947            0.0000000000
     36758      4148  TIP3      OH2            30.6903851276      -26.9206934610       40.2745381070  TIP3      3948            0.0000000000
     36759      4148  TIP3      H1             30.9590799408      -27.2954929539       41.1411885509  TIP3      3948            0.0000000000
     36760      4148  TIP3      H2             29.7323970102      -27.0029893953       40.4402250835  TIP3      3948            0.0000000000
     36761      4149  TIP3      OH2            35.1444491524      -22.5201068161       40.6038445163  TIP3      3949            0.0000000000
     36762      4149  TIP3      H1             35.8181421322      -21.8590721681       40.3619646486  TIP3      3949            0.0000000000
     36763      4149  TIP3      H2             34.4266362275      -21.9061465953       40.8715909716  TIP3      3949            0.0000000000
     36764      4150  TIP3      OH2            31.4681689340      -28.2957751300       42.5319330470  TIP3      3950            0.0000000000
     36765      4150  TIP3      H1             31.2152598390      -29.0223409418       43.1329615204  TIP3      3950            0.0000000000
     36766      4150  TIP3      H2             32.4015816931      -28.1832718044       42.7702674623  TIP3      3950            0.0000000000
     36767      4151  TIP3      OH2            24.8094242718      -25.7921182707       38.8286016967  TIP3      3951            0.0000000000
     36768      4151  TIP3      H1             24.9111636827      -26.5596681854       38.2407310951  TIP3      3951            0.0000000000
     36769      4151  TIP3      H2             24.3935401884      -26.2262033062       39.6050896331  TIP3      3951            0.0000000000
     36770      4152  TIP3      OH2            23.5736346948      -26.2810687742       41.2896779453  TIP3      3952            0.0000000000
     36771      4152  TIP3      H1             23.8855817521      -26.7841391147       42.0479774351  TIP3      3952            0.0000000000
     36772      4152  TIP3      H2             23.6778927722      -25.3539515191       41.5971109046  TIP3      3952            0.0000000000
     36773      4153  TIP3      OH2            20.1553053466      -29.0297960640       41.8015191048  TIP3      3953            0.0000000000
     36774      4153  TIP3      H1             19.3987071581      -28.6286360996       42.2767137218  TIP3      3953            0.0000000000
     36775      4153  TIP3      H2             20.6161583010      -28.2465309909       41.4549144319  TIP3      3953            0.0000000000
     36776      4154  TIP3      OH2            28.7927249063      -36.8213793357       43.1948304910  TIP3      3954            0.0000000000
     36777      4154  TIP3      H1             28.9130785336      -36.2922848929       42.3745779582  TIP3      3954            0.0000000000
     36778      4154  TIP3      H2             29.2697958826      -36.2686323163       43.8390400370  TIP3      3954            0.0000000000
     36779      4155  TIP3      OH2            26.2852400706      -24.6385321363       41.9040748443  TIP3      3955            0.0000000000
     36780      4155  TIP3      H1             25.5506204076      -24.0269335980       42.0462698948  TIP3      3955            0.0000000000
     36781      4155  TIP3      H2             26.9518367139      -24.0980202054       41.4468107715  TIP3      3955            0.0000000000
     36782      4156  TIP3      OH2            25.9402748769      -35.0334582149       43.9792713910  TIP3      3956            0.0000000000
     36783      4156  TIP3      H1             26.7102166945      -34.4383146238       44.0370566619  TIP3      3956            0.0000000000
     36784      4156  TIP3      H2             25.6640321540      -35.1411688813       44.9068922702  TIP3      3956            0.0000000000
     36785      4157  TIP3      OH2            26.7490520996      -37.9666891698       44.9357672325  TIP3      3957            0.0000000000
     36786      4157  TIP3      H1             26.4305052719      -37.2866138230       45.5498607411  TIP3      3957            0.0000000000
     36787      4157  TIP3      H2             27.4326127991      -37.4570888347       44.4394862567  TIP3      3957            0.0000000000
     36788      4158  TIP3      OH2            23.7380970003      -23.5527820735       41.9849300698  TIP3      3958            0.0000000000
     36789      4158  TIP3      H1             23.8556924293      -22.7359231819       41.4415069074  TIP3      3958            0.0000000000
     36790      4158  TIP3      H2             23.5135410470      -23.2025095759       42.8738837630  TIP3      3958            0.0000000000
     36791      4159  TIP3      OH2            22.4061703264      -36.8137341701       41.5653391914  TIP3      3959            0.0000000000
     36792      4159  TIP3      H1             22.3822104294      -35.9234101207       41.9646032250  TIP3      3959            0.0000000000
     36793      4159  TIP3      H2             23.3133395264      -37.0769231606       41.8284622251  TIP3      3959            0.0000000000
     36794      4160  TIP3      OH2            31.2232001322      -32.2619812841       47.9981740623  TIP3      3960            0.0000000000
     36795      4160  TIP3      H1             30.4321187863      -32.7754822618       47.7474769773  TIP3      3960            0.0000000000
     36796      4160  TIP3      H2             31.7316017661      -32.9855789160       48.4507638007  TIP3      3960            0.0000000000
     36797      4161  TIP3      OH2            20.6867402115      -26.4172580621       40.6309688019  TIP3      3961            0.0000000000
     36798      4161  TIP3      H1             21.3408015075      -25.7759072846       40.9272994375  TIP3      3961            0.0000000000
     36799      4161  TIP3      H2             21.1919985589      -26.8710157763       39.9291704054  TIP3      3961            0.0000000000
     36800      4162  TIP3      OH2            19.0141476337      -33.7360375293       39.7319647880  TIP3      3962            0.0000000000
     36801      4162  TIP3      H1             19.0294521765      -32.7842281044       39.9722854175  TIP3      3962            0.0000000000
     36802      4162  TIP3      H2             18.1114818800      -33.9108867121       39.4640487159  TIP3      3962            0.0000000000
     36803      4163  TIP3      OH2            32.6207065851      -22.8673011286       49.5739133984  TIP3      3963            0.0000000000
     36804      4163  TIP3      H1             32.4405536329      -22.1853479573       48.8884195512  TIP3      3963            0.0000000000
     36805      4163  TIP3      H2             33.5626461681      -22.8059470871       49.7651744378  TIP3      3963            0.0000000000
     36806      4164  TIP3      OH2            19.8567764080      -38.8321054863       48.4431023207  TIP3      3964            0.0000000000
     36807      4164  TIP3      H1             19.6645179771      -38.8737726848       47.4802654518  TIP3      3964            0.0000000000
     36808      4164  TIP3      H2             19.5894913556      -39.7116707810       48.6984680669  TIP3      3964            0.0000000000
     36809      4165  TIP3      OH2            18.7812932880      -25.0296219613       44.6643894625  TIP3      3965            0.0000000000
     36810      4165  TIP3      H1             17.9288297659      -24.5787457348       44.5963851643  TIP3      3965            0.0000000000
     36811      4165  TIP3      H2             19.2582028633      -24.5768534377       43.9544998466  TIP3      3965            0.0000000000
     36812      4166  TIP3      OH2            26.7929360639      -23.9368261521       38.9200467638  TIP3      3966            0.0000000000
     36813      4166  TIP3      H1             26.1294834208      -24.6060925196       39.2059353645  TIP3      3966            0.0000000000
     36814      4166  TIP3      H2             27.5285408532      -24.5408575770       38.7392403163  TIP3      3966            0.0000000000
     36815      4167  TIP3      OH2            31.3608942638      -24.2061843011       39.1157850629  TIP3      3967            0.0000000000
     36816      4167  TIP3      H1             31.6332390352      -24.9669770391       39.6611990125  TIP3      3967            0.0000000000
     36817      4167  TIP3      H2             32.1417424409      -23.9932705564       38.5937496025  TIP3      3967            0.0000000000
     36818      4168  TIP3      OH2            22.2624673763      -28.2756595582       38.9561381158  TIP3      3968            0.0000000000
     36819      4168  TIP3      H1             22.4025697973      -29.0328083929       39.5473997368  TIP3      3968            0.0000000000
     36820      4168  TIP3      H2             23.0108979149      -28.3888333653       38.3388233503  TIP3      3968            0.0000000000
     36821      4169  TIP3      OH2            27.6561776036      -27.1529684194       38.7044834180  TIP3      3969            0.0000000000
     36822      4169  TIP3      H1             27.4390163428      -27.0647883090       39.6587762479  TIP3      3969            0.0000000000
     36823      4169  TIP3      H2             27.4947819613      -28.1175330284       38.6051405370  TIP3      3969            0.0000000000
     36824      4170  TIP3      OH2            23.4498225700      -30.2444900017       41.3772223667  TIP3      3970            0.0000000000
     36825      4170  TIP3      H1             22.9528161771      -30.7882027361       42.0101474610  TIP3      3970            0.0000000000
     36826      4170  TIP3      H2             23.7532145560      -30.9211332507       40.7300001027  TIP3      3970            0.0000000000
     36827      4171  TIP3      OH2            24.5230547662      -32.0491784397       39.5778754873  TIP3      3971            0.0000000000
     36828      4171  TIP3      H1             24.3805931889      -32.1125658327       38.6125553951  TIP3      3971            0.0000000000
     36829      4171  TIP3      H2             25.4985867338      -31.9740224112       39.6500783535  TIP3      3971            0.0000000000
     36830      4172  TIP3      OH2            33.8561010454      -29.7044723598       39.0015968042  TIP3      3972            0.0000000000
     36831      4172  TIP3      H1             33.6594683409      -30.0831266979       38.1282668581  TIP3      3972            0.0000000000
     36832      4172  TIP3      H2             33.9424133792      -28.7417569718       38.8064793822  TIP3      3972            0.0000000000
     36833      4173  TIP3      OH2            24.3502147617      -21.3037854936       40.6714255014  TIP3      3973            0.0000000000
     36834      4173  TIP3      H1             25.3205042738      -21.2394859460       40.7208121613  TIP3      3973            0.0000000000
     36835      4173  TIP3      H2             24.2124914134      -20.7102608135       39.9244166755  TIP3      3973            0.0000000000
     36836      4174  TIP3      OH2            18.0100475792      -26.8641025308       40.3620071719  TIP3      3974            0.0000000000
     36837      4174  TIP3      H1             18.9633445294      -26.6504255219       40.3288886715  TIP3      3974            0.0000000000
     36838      4174  TIP3      H2             17.9045206878      -27.2628737723       39.4611642821  TIP3      3974            0.0000000000
     36839      4175  TIP3      OH2            16.6887734924      -21.3608795457       45.0809234299  TIP3      3975            0.0000000000
     36840      4175  TIP3      H1             15.9789360047      -21.8675091189       44.6253761926  TIP3      3975            0.0000000000
     36841      4175  TIP3      H2             16.9770706303      -22.0129754425       45.7490901001  TIP3      3975            0.0000000000
     36842      4176  TIP3      OH2            17.4518392869      -23.2168463433       46.8946689682  TIP3      3976            0.0000000000
     36843      4176  TIP3      H1             17.1894609424      -24.1200860956       47.1306613309  TIP3      3976            0.0000000000
     36844      4176  TIP3      H2             17.7939042842      -22.9054451803       47.7736603031  TIP3      3976            0.0000000000
     36845      4177  TIP3      OH2            34.3437945007      -28.7738102954       42.9644362175  TIP3      3977            0.0000000000
     36846      4177  TIP3      H1             35.2223549349      -28.3968712743       43.1280142478  TIP3      3977            0.0000000000
     36847      4177  TIP3      H2             34.3631918599      -29.5132245178       43.6076373399  TIP3      3977            0.0000000000
     36848      4178  TIP3      OH2            34.7646519126      -30.7283910520       44.8076347993  TIP3      3978            0.0000000000
     36849      4178  TIP3      H1             34.0138670082      -31.2081139140       45.2195541005  TIP3      3978            0.0000000000
     36850      4178  TIP3      H2             35.3472519358      -30.5539283056       45.5731897657  TIP3      3978            0.0000000000
     36851      4179  TIP3      OH2            34.5889737575      -27.7441514644       49.6855239417  TIP3      3979            0.0000000000
     36852      4179  TIP3      H1             35.3939565763      -28.2627482030       49.4608805189  TIP3      3979            0.0000000000
     36853      4179  TIP3      H2             34.8370547569      -26.8117381208       49.5601860202  TIP3      3979            0.0000000000
     36854      4180  TIP3      OH2            35.0681072478      -30.8958847413       41.2350476222  TIP3      3980            0.0000000000
     36855      4180  TIP3      H1             34.5024596871      -30.5531822169       40.5114879319  TIP3      3980            0.0000000000
     36856      4180  TIP3      H2             34.9765528273      -30.1688383612       41.8780207322  TIP3      3980            0.0000000000
     36857      4181  TIP3      OH2            33.4229073625      -33.6613250009       39.7265092770  TIP3      3981            0.0000000000
     36858      4181  TIP3      H1             33.5088981727      -32.9985012457       39.0334505463  TIP3      3981            0.0000000000
     36859      4181  TIP3      H2             33.2373291018      -34.4890261455       39.2421123114  TIP3      3981            0.0000000000
     36860      4182  TIP3      OH2            32.5751457354      -32.2535975122       45.4290890675  TIP3      3982            0.0000000000
     36861      4182  TIP3      H1             32.4268831409      -33.2092099993       45.3721170824  TIP3      3982            0.0000000000
     36862      4182  TIP3      H2             32.2276696849      -32.0556057518       46.3145071952  TIP3      3982            0.0000000000
     36863      4183  TIP3      OH2            17.5537168918      -30.0814218962       49.3425093327  TIP3      3983            0.0000000000
     36864      4183  TIP3      H1             17.7956435349      -30.2439957292       48.4091033100  TIP3      3983            0.0000000000
     36865      4183  TIP3      H2             18.3736793246      -30.3093905077       49.8192407178  TIP3      3983            0.0000000000
     36866      4184  TIP3      OH2            32.6591277326      -36.1914915548       38.9097693149  TIP3      3984            0.0000000000
     36867      4184  TIP3      H1             33.2615822071      -36.6581457627       39.5210826069  TIP3      3984            0.0000000000
     36868      4184  TIP3      H2             31.8060311605      -36.6502106509       39.0076320263  TIP3      3984            0.0000000000
     36869      4185  TIP3      OH2            32.2140932684      -34.6394581299       43.8175263318  TIP3      3985            0.0000000000
     36870      4185  TIP3      H1             32.5317046845      -35.5552392198       43.9868212322  TIP3      3985            0.0000000000
     36871      4185  TIP3      H2             33.0365113039      -34.2338100397       43.5109430906  TIP3      3985            0.0000000000
     36872      4186  TIP3      OH2            32.8519416000      -33.9769252221       48.8663021579  TIP3      3986            0.0000000000
     36873      4186  TIP3      H1             33.8105336009      -33.9751373075       49.0659413868  TIP3      3986            0.0000000000
     36874      4186  TIP3      H2             32.4856468228      -34.0975903757       49.7695736674  TIP3      3986            0.0000000000
     36875      4187  TIP3      OH2            32.8550193262      -37.3425664243       43.9199196235  TIP3      3987            0.0000000000
     36876      4187  TIP3      H1             33.0974600476      -37.8035700212       44.7608614272  TIP3      3987            0.0000000000
     36877      4187  TIP3      H2             32.3240032439      -38.0178386846       43.4485422632  TIP3      3987            0.0000000000
     36878      4188  TIP3      OH2            18.3605702901      -36.5576282069       48.4536192386  TIP3      3988            0.0000000000
     36879      4188  TIP3      H1             18.8076396269      -37.3784106241       48.7323694035  TIP3      3988            0.0000000000
     36880      4188  TIP3      H2             18.9157004919      -35.8881958278       48.8821396748  TIP3      3988            0.0000000000
     36881      4189  TIP3      OH2            16.6721619838      -33.5871178228       49.5185611181  TIP3      3989            0.0000000000
     36882      4189  TIP3      H1             17.2049556351      -33.8168474533       48.7266205856  TIP3      3989            0.0000000000
     36883      4189  TIP3      H2             17.1086127353      -32.7477677845       49.7446423784  TIP3      3989            0.0000000000
     36884      4190  TIP3      OH2            34.7363920441      -37.3163485376       40.4968556830  TIP3      3990            0.0000000000
     36885      4190  TIP3      H1             35.1131454462      -38.0440540089       39.9414082879  TIP3      3990            0.0000000000
     36886      4190  TIP3      H2             35.4438952820      -36.6607794573       40.4942456434  TIP3      3990            0.0000000000
     36887      4191  TIP3      OH2            17.0645858625      -37.2849604166       43.6268788383  TIP3      3991            0.0000000000
     36888      4191  TIP3      H1             16.1232592103      -37.1323886805       43.4340800273  TIP3      3991            0.0000000000
     36889      4191  TIP3      H2             17.4741532854      -36.8386209688       42.8656834788  TIP3      3991            0.0000000000
     36890      4192  TIP3      OH2            31.7951813817      -22.3313548898       45.5357003483  TIP3      3992            0.0000000000
     36891      4192  TIP3      H1             32.4366201669      -22.6638174475       44.8875665476  TIP3      3992            0.0000000000
     36892      4192  TIP3      H2             32.3234346198      -21.8339486892       46.1676796964  TIP3      3992            0.0000000000
     36893      4193  TIP3      OH2            18.8024728823      -22.7107204175       48.9884465222  TIP3      3993            0.0000000000
     36894      4193  TIP3      H1             18.8985170314      -22.8334981990       49.9422652327  TIP3      3993            0.0000000000
     36895      4193  TIP3      H2             19.7363583360      -22.8731709827       48.7473348983  TIP3      3993            0.0000000000
     36896      4194  TIP3      OH2            21.0619390376      -23.8337232573       47.9130932538  TIP3      3994            0.0000000000
     36897      4194  TIP3      H1             20.9346323509      -24.7850462424       48.0869468434  TIP3      3994            0.0000000000
     36898      4194  TIP3      H2             21.9285522603      -23.7036497149       48.3472319916  TIP3      3994            0.0000000000
     36899      4195  TIP3      OH2            23.6258092374      -23.3603277604       48.7618487543  TIP3      3995            0.0000000000
     36900      4195  TIP3      H1             23.8561723201      -24.2639000174       48.4890102471  TIP3      3995            0.0000000000
     36901      4195  TIP3      H2             23.6935942607      -23.4334872255       49.7170952348  TIP3      3995            0.0000000000
     36902      4196  TIP3      OH2            27.1454000572      -37.6350773218       47.9863403955  TIP3      3996            0.0000000000
     36903      4196  TIP3      H1             26.5066981221      -38.3211290879       48.2463204072  TIP3      3996            0.0000000000
     36904      4196  TIP3      H2             27.7091307554      -38.1671221690       47.3987477593  TIP3      3996            0.0000000000
     36905      4197  TIP3      OH2            32.2742204913      -38.7215809837       48.1568724090  TIP3      3997            0.0000000000
     36906      4197  TIP3      H1             32.9469358869      -38.9293626954       47.4625204676  TIP3      3997            0.0000000000
     36907      4197  TIP3      H2             31.4797016367      -39.2077941478       47.8733487053  TIP3      3997            0.0000000000
     36908      4198  TIP3      OH2            33.9767488101      -38.4071192502       46.1911790199  TIP3      3998            0.0000000000
     36909      4198  TIP3      H1             34.6699310196      -39.0399208004       45.9265714169  TIP3      3998            0.0000000000
     36910      4198  TIP3      H2             34.4687419394      -37.5685734641       46.3382124984  TIP3      3998            0.0000000000
     36911      4199  TIP3      OH2            19.4813323365      -39.1447773712       45.7542912599  TIP3      3999            0.0000000000
     36912      4199  TIP3      H1             18.7225630398      -39.3289946217       45.1772405425  TIP3      3999            0.0000000000
     36913      4199  TIP3      H2             19.9683816677      -39.9784948500       45.7216258210  TIP3      3999            0.0000000000
     36914      4200  TIP3      OH2            18.3700286901      -39.2858508737       41.5832398058  TIP3      4000            0.0000000000
     36915      4200  TIP3      H1             18.7390059554      -38.6861959632       40.9130969923  TIP3      4000            0.0000000000
     36916      4200  TIP3      H2             17.6844965283      -38.7308484873       41.9754439388  TIP3      4000            0.0000000000
     36917      4201  TIP3      OH2            23.8822570798      -38.7913495897       45.4169410476  TIP3      4001            0.0000000000
     36918      4201  TIP3      H1             24.8451502710      -38.7058296419       45.3719067960  TIP3      4001            0.0000000000
     36919      4201  TIP3      H2             23.8788765320      -39.2584940887       46.2522294127  TIP3      4001            0.0000000000
     36920      4202  TIP3      OH2            29.5102251002      -39.0316731551       47.3729313897  TIP3      4002            0.0000000000
     36921      4202  TIP3      H1             29.6300897556      -38.9563682352       46.4145531972  TIP3      4002            0.0000000000
     36922      4202  TIP3      H2             29.3575207327      -39.9849661650       47.4396603696  TIP3      4002            0.0000000000
     36923      4203  TIP3      OH2            30.9447514464      -39.0419447736       42.8750002621  TIP3      4003            0.0000000000
     36924      4203  TIP3      H1             30.1757176111      -38.4724236877       42.7231321871  TIP3      4003            0.0000000000
     36925      4203  TIP3      H2             30.6083046165      -39.9438057144       43.0061324180  TIP3      4003            0.0000000000
     36926      4204  TIP3      OH2            18.2042358161      -23.3697977721       42.5480696836  TIP3      4004            0.0000000000
     36927      4204  TIP3      H1             17.5553795727      -23.4105528768       41.8153451866  TIP3      4004            0.0000000000
     36928      4204  TIP3      H2             18.1937715132      -22.4125489209       42.6948432748  TIP3      4004            0.0000000000
     36929      4205  TIP3      OH2            20.0916074232      -37.4671212649       40.0118584559  TIP3      4005            0.0000000000
     36930      4205  TIP3      H1             20.6540018050      -37.9947554277       39.4205112643  TIP3      4005            0.0000000000
     36931      4205  TIP3      H2             20.7556892093      -37.0806716526       40.6209078494  TIP3      4005            0.0000000000
     36932      4206  TIP3      OH2            25.0691196193      -37.1542556651       42.4674897628  TIP3      4006            0.0000000000
     36933      4206  TIP3      H1             25.4076737564      -37.7240298244       43.1723864569  TIP3      4006            0.0000000000
     36934      4206  TIP3      H2             25.1965290081      -36.2771199724       42.8875015284  TIP3      4006            0.0000000000
     36935      4207  TIP3      OH2            27.0735278156      -22.0545557735       40.8474420287  TIP3      4007            0.0000000000
     36936      4207  TIP3      H1             28.0046988363      -21.8720075615       40.6453280074  TIP3      4007            0.0000000000
     36937      4207  TIP3      H2             26.8535445349      -22.5937377615       40.0596995143  TIP3      4007            0.0000000000
     36938      4208  TIP3      OH2            33.8191124685      -22.5644914678       43.5633433563  TIP3      4008            0.0000000000
     36939      4208  TIP3      H1             33.5771772543      -23.3579075745       43.0252494353  TIP3      4008            0.0000000000
     36940      4208  TIP3      H2             33.6808638790      -21.8416325826       42.9224882878  TIP3      4008            0.0000000000
     36941      4209  TIP3      OH2            19.9923783531      -22.3988382311       39.4535906255  TIP3      4009            0.0000000000
     36942      4209  TIP3      H1             19.7269503044      -22.1499762984       40.3499391358  TIP3      4009            0.0000000000
     36943      4209  TIP3      H2             20.7781544761      -22.9590798447       39.6137256470  TIP3      4009            0.0000000000
     36944      4210  TIP3      OH2           -40.4077333925      -27.1029281294       49.4708664779  TIP3      4010            0.0000000000
     36945      4210  TIP3      H1            -40.6259376291      -27.6730775965       48.7110828093  TIP3      4010            0.0000000000
     36946      4210  TIP3      H2            -39.5400815360      -26.7742416046       49.1907414265  TIP3      4010            0.0000000000
     36947      4211  TIP3      OH2            36.2054797523      -33.0610030312       44.6493712620  TIP3      4011            0.0000000000
     36948      4211  TIP3      H1             35.8130737948      -32.1650210734       44.5895711559  TIP3      4011            0.0000000000
     36949      4211  TIP3      H2             35.6162035478      -33.5606968635       44.0799739530  TIP3      4011            0.0000000000
     36950      4212  TIP3      OH2            36.9395028534      -30.7909793699       46.7777898321  TIP3      4012            0.0000000000
     36951      4212  TIP3      H1             37.1918071106      -31.6058479196       47.2533343620  TIP3      4012            0.0000000000
     36952      4212  TIP3      H2             37.6730827847      -30.6890621159       46.1511674416  TIP3      4012            0.0000000000
     36953      4213  TIP3      OH2            37.5972819727      -33.3641572853       47.8391993620  TIP3      4013            0.0000000000
     36954      4213  TIP3      H1             38.2985842333      -33.8441961180       48.3284045154  TIP3      4013            0.0000000000
     36955      4213  TIP3      H2             37.7538832293      -33.6689377018       46.9256574501  TIP3      4013            0.0000000000
     36956      4214  TIP3      OH2            39.3538590795      -35.4445339494       49.1307698950  TIP3      4014            0.0000000000
     36957      4214  TIP3      H1             39.7534190737      -34.6716643589       49.5714994121  TIP3      4014            0.0000000000
     36958      4214  TIP3      H2             39.9437636650      -35.5843991015       48.3744495368  TIP3      4014            0.0000000000
     36959      4215  TIP3      OH2            36.9728641337      -27.5733164424       42.9971996890  TIP3      4015            0.0000000000
     36960      4215  TIP3      H1             36.6549416646      -27.2238331617       42.1536309017  TIP3      4015            0.0000000000
     36961      4215  TIP3      H2             37.0086831133      -26.7470126958       43.5308783257  TIP3      4015            0.0000000000
     36962      4216  TIP3      OH2            36.0582441603      -25.4986315251       49.0721752912  TIP3      4016            0.0000000000
     36963      4216  TIP3      H1             36.9741627730      -25.7705888265       49.2265448486  TIP3      4016            0.0000000000
     36964      4216  TIP3      H2             35.9179719792      -24.8056154808       49.7236734119  TIP3      4016            0.0000000000
     36965      4217  TIP3      OH2            39.0158514897      -23.2548315058       45.2439770852  TIP3      4017            0.0000000000
     36966      4217  TIP3      H1             39.3314357399      -23.2510903593       46.1758662820  TIP3      4017            0.0000000000
     36967      4217  TIP3      H2             38.0682553115      -23.3034927907       45.2943161830  TIP3      4017            0.0000000000
     36968      4218  TIP3      OH2            35.5835582170      -36.2321096021       46.2660600814  TIP3      4018            0.0000000000
     36969      4218  TIP3      H1             36.2580839228      -36.2680935943       46.9786171225  TIP3      4018            0.0000000000
     36970      4218  TIP3      H2             36.0466038284      -36.6568206028       45.5212310174  TIP3      4018            0.0000000000
     36971      4219  TIP3      OH2            36.8219689425      -35.5567345917       41.6461172648  TIP3      4019            0.0000000000
     36972      4219  TIP3      H1             37.3251853987      -34.9445217970       41.0789668238  TIP3      4019            0.0000000000
     36973      4219  TIP3      H2             36.1447797554      -34.9373841797       41.9963246328  TIP3      4019            0.0000000000
     36974      4220  TIP3      OH2            38.5673517272      -34.2938842908       45.2070683381  TIP3      4020            0.0000000000
     36975      4220  TIP3      H1             37.6274438057      -34.2916634606       44.9867383459  TIP3      4020            0.0000000000
     36976      4220  TIP3      H2             38.8740175824      -35.2236745172       45.1422514675  TIP3      4020            0.0000000000
     36977      4221  TIP3      OH2            39.1797629036      -29.2795309984       48.0550439655  TIP3      4021            0.0000000000
     36978      4221  TIP3      H1             40.0300506516      -29.2481096434       47.5871055250  TIP3      4021            0.0000000000
     36979      4221  TIP3      H2             39.4038939451      -29.9704634001       48.7175911703  TIP3      4021            0.0000000000
     36980      4222  TIP3      OH2            37.5733526160      -30.9623164585       40.2522369725  TIP3      4022            0.0000000000
     36981      4222  TIP3      H1             38.1298996178      -30.2891970903       40.6948045964  TIP3      4022            0.0000000000
     36982      4222  TIP3      H2             36.6597011706      -30.6692314509       40.4927640749  TIP3      4022            0.0000000000
     36983      4223  TIP3      OH2            38.9632861240      -29.0397468330       41.6746797520  TIP3      4023            0.0000000000
     36984      4223  TIP3      H1             38.3173398446      -28.7147539095       42.3418702529  TIP3      4023            0.0000000000
     36985      4223  TIP3      H2             39.4367978957      -28.2234779638       41.5037627250  TIP3      4023            0.0000000000
     36986      4224  TIP3      OH2            39.2690690437      -26.3505387298       40.7201619771  TIP3      4024            0.0000000000
     36987      4224  TIP3      H1             39.9793986001      -25.7414867931       40.9823399174  TIP3      4024            0.0000000000
     36988      4224  TIP3      H2             39.8382740270      -26.8129176729       40.0708349789  TIP3      4024            0.0000000000
     36989      4225  TIP3      OH2            37.8976476384      -33.7178502083       39.7768921124  TIP3      4025            0.0000000000
     36990      4225  TIP3      H1             37.8549288377      -32.7574547908       39.9530678039  TIP3      4025            0.0000000000
     36991      4225  TIP3      H2             37.0175242721      -33.9082201527       39.4423249716  TIP3      4025            0.0000000000
     36992      4226  TIP3      OH2            38.7533352080      -38.8459732586       48.4775275389  TIP3      4026            0.0000000000
     36993      4226  TIP3      H1             38.5614767506      -38.8525119379       47.5150601277  TIP3      4026            0.0000000000
     36994      4226  TIP3      H2             38.5071195932      -39.7412681921       48.6714205491  TIP3      4026            0.0000000000
     36995      4227  TIP3      OH2            37.4836607884      -25.1692756750       44.5382116052  TIP3      4027            0.0000000000
     36996      4227  TIP3      H1             36.7346909469      -24.5591609817       44.5572356155  TIP3      4027            0.0000000000
     36997      4227  TIP3      H2             38.1332461794      -24.6269597608       44.0353936967  TIP3      4027            0.0000000000
     36998      4228  TIP3      OH2            36.7651714665      -26.7065382209       40.0723420157  TIP3      4028            0.0000000000
     36999      4228  TIP3      H1             37.7181933054      -26.6500877464       40.3216966620  TIP3      4028            0.0000000000
     37000      4228  TIP3      H2             36.8129972592      -27.4136466040       39.3912745204  TIP3      4028            0.0000000000
     37001      4229  TIP3      OH2            35.5341497192      -21.3588010158       45.0973747810  TIP3      4029            0.0000000000
     37002      4229  TIP3      H1             34.8293317518      -21.8649784210       44.6317101562  TIP3      4029            0.0000000000
     37003      4229  TIP3      H2             35.8260484867      -22.0179126479       45.7594118194  TIP3      4029            0.0000000000
     37004      4230  TIP3      OH2            36.3002945773      -23.2354947544       46.8798371192  TIP3      4030            0.0000000000
     37005      4230  TIP3      H1             36.0496017840      -24.1378295156       47.1252591940  TIP3      4030            0.0000000000
     37006      4230  TIP3      H2             36.6334759148      -22.9167789245       47.7597400193  TIP3      4030            0.0000000000
     37007      4231  TIP3      OH2            36.4141070283      -30.0767079525       49.3277880056  TIP3      4031            0.0000000000
     37008      4231  TIP3      H1             36.6602343802      -30.2660106911       48.3986642684  TIP3      4031            0.0000000000
     37009      4231  TIP3      H2             37.2402546272      -30.3242724095       49.7939210483  TIP3      4031            0.0000000000
     37010      4232  TIP3      OH2            37.1398520358      -36.6013730048       48.5151040810  TIP3      4032            0.0000000000
     37011      4232  TIP3      H1             37.7140076054      -37.3741123016       48.6728203476  TIP3      4032            0.0000000000
     37012      4232  TIP3      H2             37.7579095491      -35.9226105876       48.8463360823  TIP3      4032            0.0000000000
     37013      4233  TIP3      OH2            35.5614066583      -33.6109375650       49.5149153000  TIP3      4033            0.0000000000
     37014      4233  TIP3      H1             36.1056049044      -33.8135587759       48.7184710938  TIP3      4033            0.0000000000
     37015      4233  TIP3      H2             35.9363107236      -32.7438457390       49.7380769729  TIP3      4033            0.0000000000
     37016      4234  TIP3      OH2            35.9144931822      -37.2984705866       43.5997330387  TIP3      4034            0.0000000000
     37017      4234  TIP3      H1             34.9737327597      -37.1250006702       43.4306530506  TIP3      4034            0.0000000000
     37018      4234  TIP3      H2             36.3263509535      -36.8289386552       42.8533130132  TIP3      4034            0.0000000000
     37019      4235  TIP3      OH2            37.6324534718      -22.7495616734       48.9704309375  TIP3      4035            0.0000000000
     37020      4235  TIP3      H1             37.7262643751      -22.8405429398       49.9332795920  TIP3      4035            0.0000000000
     37021      4235  TIP3      H2             38.5804441453      -22.8073379259       48.7894534174  TIP3      4035            0.0000000000
     37022      4236  TIP3      OH2            38.1705022260      -38.9656647091       45.6879257122  TIP3      4036            0.0000000000
     37023      4236  TIP3      H1             37.4813924062      -39.3602770917       45.1540869762  TIP3      4036            0.0000000000
     37024      4236  TIP3      H2             38.7888181268      -39.7285898863       45.8375935281  TIP3      4036            0.0000000000
     37025      4237  TIP3      OH2            37.2455755871      -39.2802554259       41.6073787517  TIP3      4037            0.0000000000
     37026      4237  TIP3      H1             37.5830619753      -38.6930887031       40.9046101644  TIP3      4037            0.0000000000
     37027      4237  TIP3      H2             36.5461947302      -38.7338582551       41.9950744867  TIP3      4037            0.0000000000
     37028      4238  TIP3      OH2            37.0348136272      -23.3918099113       42.4944212317  TIP3      4038            0.0000000000
     37029      4238  TIP3      H1             36.3714736498      -23.3862537940       41.7820408399  TIP3      4038            0.0000000000
     37030      4238  TIP3      H2             37.0533551397      -22.4411936116       42.6846449063  TIP3      4038            0.0000000000
     37031      4239  TIP3      OH2            38.9743884139      -37.4201852178       40.0414138345  TIP3      4039            0.0000000000
     37032      4239  TIP3      H1             39.5090433846      -37.9825017194       39.4665160579  TIP3      4039            0.0000000000
     37033      4239  TIP3      H2             39.6348324862      -37.0364466883       40.6299339666  TIP3      4039            0.0000000000
     37034      4240  TIP3      OH2            38.8340630139      -22.4474696665       39.4573499112  TIP3      4040            0.0000000000
     37035      4240  TIP3      H1             38.5882924443      -22.0772247707       40.3213499017  TIP3      4040            0.0000000000
     37036      4240  TIP3      H2             39.6549683471      -22.9139347047       39.6433142386  TIP3      4040            0.0000000000
     37037      4241  TIP3      OH2           -27.9662102767      -11.0918086503       45.6303198820  TIP3      4041            0.0000000000
     37038      4241  TIP3      H1            -27.9690838535      -10.1103206743       45.6002373038  TIP3      4041            0.0000000000
     37039      4241  TIP3      H2            -28.6925811787      -11.3187646353       45.0262295597  TIP3      4041            0.0000000000
     37040      4242  TIP3      OH2           -29.0907937231      -11.8343077976       49.1381773102  TIP3      4042            0.0000000000
     37041      4242  TIP3      H1            -29.1557455935      -12.4806875913       49.8651110540  TIP3      4042            0.0000000000
     37042      4242  TIP3      H2            -29.3980935808      -12.3128302652       48.3548201008  TIP3      4042            0.0000000000
     37043      4243  TIP3      OH2           -25.5136592967       -8.9258380006       47.3514131567  TIP3      4043            0.0000000000
     37044      4243  TIP3      H1            -25.8532640922       -9.6443721960       47.9124091439  TIP3      4043            0.0000000000
     37045      4243  TIP3      H2            -25.3736178153       -8.2374060211       48.0587404603  TIP3      4043            0.0000000000
     37046      4244  TIP3      OH2           -35.8479193912       -7.6509287056       49.0595320361  TIP3      4044            0.0000000000
     37047      4244  TIP3      H1            -36.1294104290       -8.5604692319       48.8568805085  TIP3      4044            0.0000000000
     37048      4244  TIP3      H2            -34.8997380634       -7.8566193005       49.2206411989  TIP3      4044            0.0000000000
     37049      4245  TIP3      OH2           -39.0767101427      -14.0774472033       44.5075622333  TIP3      4045            0.0000000000
     37050      4245  TIP3      H1            -39.5893081212      -13.2694761955       44.6479849876  TIP3      4045            0.0000000000
     37051      4245  TIP3      H2            -39.7892563064      -14.6906419714       44.2499907480  TIP3      4045            0.0000000000
     37052      4246  TIP3      OH2           -38.4592237076      -11.9028356494       46.8062297322  TIP3      4046            0.0000000000
     37053      4246  TIP3      H1            -38.2493112267      -12.7439019450       47.2497710390  TIP3      4046            0.0000000000
     37054      4246  TIP3      H2            -37.7464135096      -11.8197077514       46.1574974608  TIP3      4046            0.0000000000
     37055      4247  TIP3      OH2           -28.2994370518       -3.7169415645       47.6893642537  TIP3      4047            0.0000000000
     37056      4247  TIP3      H1            -27.6502322499       -4.3915908595       47.3647722968  TIP3      4047            0.0000000000
     37057      4247  TIP3      H2            -28.4923092283       -4.0604257906       48.5615530404  TIP3      4047            0.0000000000
     37058      4248  TIP3      OH2           -30.6769156610       -9.3761092064       49.5633777721  TIP3      4048            0.0000000000
     37059      4248  TIP3      H1            -30.3378056363      -10.0674889935       48.9724309105  TIP3      4048            0.0000000000
     37060      4248  TIP3      H2            -29.9241446270       -9.3072196415       50.1558101892  TIP3      4048            0.0000000000
     37061      4249  TIP3      OH2           -27.5178423680      -14.9659805239       49.8904161487  TIP3      4049            0.0000000000
     37062      4249  TIP3      H1            -27.4045365737      -15.9316038375       49.9072337483  TIP3      4049            0.0000000000
     37063      4249  TIP3      H2            -27.6424147622      -14.8227678421       48.9277438079  TIP3      4049            0.0000000000
     37064      4250  TIP3      OH2           -34.4408836168      -16.8826427268       47.1152085974  TIP3      4050            0.0000000000
     37065      4250  TIP3      H1            -34.3354374247      -16.0432429662       46.6340171730  TIP3      4050            0.0000000000
     37066      4250  TIP3      H2            -34.8466549711      -17.4598749227       46.4333135818  TIP3      4050            0.0000000000
     37067      4251  TIP3      OH2           -26.7298985969      -16.7872050787       45.4779393518  TIP3      4051            0.0000000000
     37068      4251  TIP3      H1            -26.0910879199      -17.1145051082       46.1573698041  TIP3      4051            0.0000000000
     37069      4251  TIP3      H2            -26.1424073980      -16.2152437653       44.9664816440  TIP3      4051            0.0000000000
     37070      4252  TIP3      OH2           -37.8221254983      -14.5092129035       47.8657125402  TIP3      4052            0.0000000000
     37071      4252  TIP3      H1            -37.1387540171      -15.0449371918       48.3111688653  TIP3      4052            0.0000000000
     37072      4252  TIP3      H2            -37.7200485446      -14.8082605244       46.9498290783  TIP3      4052            0.0000000000
     37073      4253  TIP3      OH2           -32.6635814904      -12.9321411753       47.1594819860  TIP3      4053            0.0000000000
     37074      4253  TIP3      H1            -31.9909653273      -13.5132240195       47.5642728492  TIP3      4053            0.0000000000
     37075      4253  TIP3      H2            -33.1870204021      -13.5773250466       46.6429996521  TIP3      4053            0.0000000000
     37076      4254  TIP3      OH2           -28.2692795212       -8.4985550404       44.7362710720  TIP3      4054            0.0000000000
     37077      4254  TIP3      H1            -28.5065263214       -8.7744259027       43.8430626438  TIP3      4054            0.0000000000
     37078      4254  TIP3      H2            -28.5566328639       -7.5602410407       44.7791161002  TIP3      4054            0.0000000000
     37079      4255  TIP3      OH2           -24.9616888998      -17.4556937505       47.4651500361  TIP3      4055            0.0000000000
     37080      4255  TIP3      H1            -25.1337049917      -18.2032028483       48.0527791213  TIP3      4055            0.0000000000
     37081      4255  TIP3      H2            -24.2746610055      -17.0160626515       48.0024694274  TIP3      4055            0.0000000000
     37082      4256  TIP3      OH2           -35.9689679094      -16.1173688770       49.1269978004  TIP3      4056            0.0000000000
     37083      4256  TIP3      H1            -35.4050741178      -15.4248690765       49.4688432508  TIP3      4056            0.0000000000
     37084      4256  TIP3      H2            -35.4372234800      -16.5373145896       48.4178758061  TIP3      4056            0.0000000000
     37085      4257  TIP3      OH2           -38.4296645072       -8.6724841599       42.9627368797  TIP3      4057            0.0000000000
     37086      4257  TIP3      H1            -38.7876844188       -8.3566307188       42.1359557168  TIP3      4057            0.0000000000
     37087      4257  TIP3      H2            -38.4475771870       -7.8814857223       43.5300000666  TIP3      4057            0.0000000000
     37088      4258  TIP3      OH2           -24.8410276478       -7.3333239279       49.2788948720  TIP3      4058            0.0000000000
     37089      4258  TIP3      H1            -25.6282251873       -7.2185652622       49.8541270198  TIP3      4058            0.0000000000
     37090      4258  TIP3      H2            -24.4814735912       -6.4587491667       49.4597029390  TIP3      4058            0.0000000000
     37091      4259  TIP3      OH2           -31.5756850216      -20.6107292444       48.5967759578  TIP3      4059            0.0000000000
     37092      4259  TIP3      H1            -31.6674804953      -21.5811003380       48.5593137119  TIP3      4059            0.0000000000
     37093      4259  TIP3      H2            -32.4651432252      -20.3263572138       48.8945511138  TIP3      4059            0.0000000000
     37094      4260  TIP3      OH2           -26.6666095481       -5.2579280493       46.3493209870  TIP3      4060            0.0000000000
     37095      4260  TIP3      H1            -26.2151429240       -5.9781752657       45.8563733391  TIP3      4060            0.0000000000
     37096      4260  TIP3      H2            -26.2085595806       -4.4662728334       45.9947538733  TIP3      4060            0.0000000000
     37097      4261  TIP3      OH2           -25.4243470535       -7.3101204621       44.9128856109  TIP3      4061            0.0000000000
     37098      4261  TIP3      H1            -25.7181202766       -8.0192153936       44.3157872331  TIP3      4061            0.0000000000
     37099      4261  TIP3      H2            -25.3836874904       -7.8110178140       45.7498513237  TIP3      4061            0.0000000000
     37100      4262  TIP3      OH2           -29.3053502228      -11.8537889756       43.1398798337  TIP3      4062            0.0000000000
     37101      4262  TIP3      H1            -30.0018880942      -11.2749651894       42.7772591432  TIP3      4062            0.0000000000
     37102      4262  TIP3      H2            -28.5965892864      -11.7582326369       42.4776637422  TIP3      4062            0.0000000000
     37103      4263  TIP3      OH2           -29.2248923422      -13.2819874816       40.1493410828  TIP3      4063            0.0000000000
     37104      4263  TIP3      H1            -28.5208414056      -13.3007053611       40.8151413833  TIP3      4063            0.0000000000
     37105      4263  TIP3      H2            -28.9193532841      -14.0017206758       39.5823253114  TIP3      4063            0.0000000000
     37106      4264  TIP3      OH2           -25.8528201001      -11.6390533019       44.0525986959  TIP3      4064            0.0000000000
     37107      4264  TIP3      H1            -26.6025422256      -11.4011390757       44.6476311388  TIP3      4064            0.0000000000
     37108      4264  TIP3      H2            -25.3901320377      -12.3216440104       44.5670049269  TIP3      4064            0.0000000000
     37109      4265  TIP3      OH2           -34.2536216661      -10.9800532654       45.9839091636  TIP3      4065            0.0000000000
     37110      4265  TIP3      H1            -34.5826144092      -11.3661002954       45.1371016219  TIP3      4065            0.0000000000
     37111      4265  TIP3      H2            -33.6179583748      -11.6657305880       46.2763897105  TIP3      4065            0.0000000000
     37112      4266  TIP3      OH2           -32.8387003577       -7.5327415084       48.6113272177  TIP3      4066            0.0000000000
     37113      4266  TIP3      H1            -32.9204376362       -8.1162160577       47.8453440094  TIP3      4066            0.0000000000
     37114      4266  TIP3      H2            -32.1364177483       -7.9675156836       49.1254749240  TIP3      4066            0.0000000000
     37115      4267  TIP3      OH2           -34.0447126313      -12.1405495861       49.4827672555  TIP3      4067            0.0000000000
     37116      4267  TIP3      H1            -33.3934542045      -12.0865825692       48.7683182963  TIP3      4067            0.0000000000
     37117      4267  TIP3      H2            -33.5756713540      -11.6922218595       50.2062538143  TIP3      4067            0.0000000000
     37118      4268  TIP3      OH2           -26.9772057330      -12.4356022746       41.7296962778  TIP3      4068            0.0000000000
     37119      4268  TIP3      H1            -26.4243354167      -12.2574641162       42.5328943630  TIP3      4068            0.0000000000
     37120      4268  TIP3      H2            -26.5275346141      -11.9430458390       41.0062141575  TIP3      4068            0.0000000000
     37121      4269  TIP3      OH2           -29.2728968728       -5.7325246156       45.1839023559  TIP3      4069            0.0000000000
     37122      4269  TIP3      H1            -28.8370947109       -5.4199055684       45.9854203212  TIP3      4069            0.0000000000
     37123      4269  TIP3      H2            -29.8293782915       -4.9783646312       44.9519273287  TIP3      4069            0.0000000000
     37124      4270  TIP3      OH2           -23.2550291457      -20.7117994678       41.6326064480  TIP3      4070            0.0000000000
     37125      4270  TIP3      H1            -24.2025602879      -20.5955930084       41.8713677210  TIP3      4070            0.0000000000
     37126      4270  TIP3      H2            -23.0540017869      -19.8692045645       41.1884187031  TIP3      4070            0.0000000000
     37127      4271  TIP3      OH2           -35.2709752648      -11.9605276360       43.5897474654  TIP3      4071            0.0000000000
     37128      4271  TIP3      H1            -35.5774377573      -11.1810839770       43.0786329788  TIP3      4071            0.0000000000
     37129      4271  TIP3      H2            -35.9288041029      -12.6228458271       43.3701997541  TIP3      4071            0.0000000000
     37130      4272  TIP3      OH2           -22.1433099364       -6.3560953710       39.9817669210  TIP3      4072            0.0000000000
     37131      4272  TIP3      H1            -21.9764759147       -5.4129613513       40.1502336676  TIP3      4072            0.0000000000
     37132      4272  TIP3      H2            -21.2200629576       -6.6695851263       39.9785233608  TIP3      4072            0.0000000000
     37133      4273  TIP3      OH2           -38.9090528428       -6.1260554822       49.0511886106  TIP3      4073            0.0000000000
     37134      4273  TIP3      H1            -38.3321918012       -6.8552714375       49.3299779336  TIP3      4073            0.0000000000
     37135      4273  TIP3      H2            -39.5035825560       -6.0694029083       49.8014619191  TIP3      4073            0.0000000000
     37136      4274  TIP3      OH2           -29.7875630546       -2.8084341883       43.6117210896  TIP3      4074            0.0000000000
     37137      4274  TIP3      H1            -29.8989230999       -2.8853298447       42.6475549368  TIP3      4074            0.0000000000
     37138      4274  TIP3      H2            -29.7860789701       -1.8465921187       43.7661865561  TIP3      4074            0.0000000000
     37139      4275  TIP3      OH2           -36.1593924066       -3.9227274869       45.4207605083  TIP3      4075            0.0000000000
     37140      4275  TIP3      H1            -35.9950167087       -4.3632215061       46.2776454628  TIP3      4075            0.0000000000
     37141      4275  TIP3      H2            -36.9942182185       -4.3489976023       45.1684603713  TIP3      4075            0.0000000000
     37142      4276  TIP3      OH2           -26.7347399092       -3.5909291370       40.5876394396  TIP3      4076            0.0000000000
     37143      4276  TIP3      H1            -26.2760372655       -4.3519747937       40.1583895524  TIP3      4076            0.0000000000
     37144      4276  TIP3      H2            -26.6952893933       -3.8506429581       41.5356320392  TIP3      4076            0.0000000000
     37145      4277  TIP3      OH2           -27.0379573649       -3.6607498563       43.3692052233  TIP3      4077            0.0000000000
     37146      4277  TIP3      H1            -28.0002917105       -3.5846805479       43.5399405585  TIP3      4077            0.0000000000
     37147      4277  TIP3      H2            -26.8060215487       -4.4032829134       43.9484381265  TIP3      4077            0.0000000000
     37148      4278  TIP3      OH2           -34.2480336037      -19.7624956231       49.4188938301  TIP3      4078            0.0000000000
     37149      4278  TIP3      H1            -35.1258828764      -19.8790783769       48.9787942606  TIP3      4078            0.0000000000
     37150      4278  TIP3      H2            -34.3186771860      -18.8959646972       49.8267709895  TIP3      4078            0.0000000000
     37151      4279  TIP3      OH2           -25.5332802757      -11.4052379568       39.5433866154  TIP3      4079            0.0000000000
     37152      4279  TIP3      H1            -25.5548236856      -11.5989889221       38.5775907229  TIP3      4079            0.0000000000
     37153      4279  TIP3      H2            -24.6730427704      -10.9637536221       39.5949992969  TIP3      4079            0.0000000000
     37154      4280  TIP3      OH2           -29.9370370823      -17.4850807760       40.0528103881  TIP3      4080            0.0000000000
     37155      4280  TIP3      H1            -30.2564958891      -17.5479788583       40.9710300480  TIP3      4080            0.0000000000
     37156      4280  TIP3      H2            -30.2452043969      -18.3621988797       39.7464173594  TIP3      4080            0.0000000000
     37157      4281  TIP3      OH2           -34.1612103661      -14.6401104680       45.4723629554  TIP3      4081            0.0000000000
     37158      4281  TIP3      H1            -35.0967080131      -14.9021726150       45.3561620618  TIP3      4081            0.0000000000
     37159      4281  TIP3      H2            -33.7924365992      -14.9388041609       44.6177250153  TIP3      4081            0.0000000000
     37160      4282  TIP3      OH2           -28.6426124433      -14.1463176420       44.2628163121  TIP3      4082            0.0000000000
     37161      4282  TIP3      H1            -29.0289159675      -13.3120547314       43.9136921084  TIP3      4082            0.0000000000
     37162      4282  TIP3      H2            -27.9502195548      -14.3144894676       43.6038602421  TIP3      4082            0.0000000000
     37163      4283  TIP3      OH2           -27.6258875576      -14.6731846464       47.1224478424  TIP3      4083            0.0000000000
     37164      4283  TIP3      H1            -27.8630157176      -14.0917123486       46.3740277085  TIP3      4083            0.0000000000
     37165      4283  TIP3      H2            -27.4930511187      -15.5062370569       46.6211482381  TIP3      4083            0.0000000000
     37166      4284  TIP3      OH2           -33.1226198269      -17.1197672568       39.1690147840  TIP3      4084            0.0000000000
     37167      4284  TIP3      H1            -33.5804234994      -17.5398851424       39.9286854192  TIP3      4084            0.0000000000
     37168      4284  TIP3      H2            -33.8366772336      -16.6888201359       38.6793506665  TIP3      4084            0.0000000000
     37169      4285  TIP3      OH2           -39.8065078502      -17.3977387018       46.2158318129  TIP3      4085            0.0000000000
     37170      4285  TIP3      H1            -39.1738833594      -17.4783610075       46.9578389952  TIP3      4085            0.0000000000
     37171      4285  TIP3      H2            -39.3892987718      -17.8993694642       45.5080939494  TIP3      4085            0.0000000000
     37172      4286  TIP3      OH2           -38.5545126992      -16.6425329285       41.6703853409  TIP3      4086            0.0000000000
     37173      4286  TIP3      H1            -38.0435101715      -16.0336573706       41.0935120071  TIP3      4086            0.0000000000
     37174      4286  TIP3      H2            -39.2477581681      -16.0731222216       42.0092002941  TIP3      4086            0.0000000000
     37175      4287  TIP3      OH2           -31.6012076179      -17.0452807468       46.5163847916  TIP3      4087            0.0000000000
     37176      4287  TIP3      H1            -32.5328799827      -17.0987518365       46.8046205431  TIP3      4087            0.0000000000
     37177      4287  TIP3      H2            -31.1044467537      -17.2654699856       47.3173119779  TIP3      4087            0.0000000000
     37178      4288  TIP3      OH2           -36.7726862829      -15.5502157945       45.3743017235  TIP3      4088            0.0000000000
     37179      4288  TIP3      H1            -37.6587072045      -15.3859071202       45.0027912653  TIP3      4088            0.0000000000
     37180      4288  TIP3      H2            -36.5384273073      -16.4051837075       44.9743695194  TIP3      4088            0.0000000000
     37181      4289  TIP3      OH2           -33.1534861346      -15.4984919778       43.0047998326  TIP3      4089            0.0000000000
     37182      4289  TIP3      H1            -32.1966084374      -15.3870708837       43.1626301908  TIP3      4089            0.0000000000
     37183      4289  TIP3      H2            -33.3897543341      -14.8157953984       42.3477935283  TIP3      4089            0.0000000000
     37184      4290  TIP3      OH2           -27.1926793874      -17.9132987229       49.5928510034  TIP3      4090            0.0000000000
     37185      4290  TIP3      H1            -27.7901398645      -17.8146700196       50.3533722659  TIP3      4090            0.0000000000
     37186      4290  TIP3      H2            -27.8099052625      -18.1344745679       48.8989957512  TIP3      4090            0.0000000000
     37187      4291  TIP3      OH2           -34.4488807915      -14.3224504283       40.5849513167  TIP3      4091            0.0000000000
     37188      4291  TIP3      H1            -34.9768166208      -14.6998677033       39.8605603878  TIP3      4091            0.0000000000
     37189      4291  TIP3      H2            -33.6259918075      -14.1133061840       40.1161604883  TIP3      4091            0.0000000000
     37190      4292  TIP3      OH2           -30.3637152955      -14.3832206552       48.3952361129  TIP3      4092            0.0000000000
     37191      4292  TIP3      H1            -29.7265321876      -14.8658630960       47.8416879528  TIP3      4092            0.0000000000
     37192      4292  TIP3      H2            -30.4212287191      -14.9316628066       49.1850618153  TIP3      4092            0.0000000000
     37193      4293  TIP3      OH2           -35.3013941513      -18.1929750751       44.8464864536  TIP3      4093            0.0000000000
     37194      4293  TIP3      H1            -35.6361792424      -19.1100023625       44.8267103678  TIP3      4093            0.0000000000
     37195      4293  TIP3      H2            -34.5293302340      -18.2743849286       44.2735292504  TIP3      4093            0.0000000000
     37196      4294  TIP3      OH2           -31.0958959049       -9.7928323969       42.5142010824  TIP3      4094            0.0000000000
     37197      4294  TIP3      H1            -31.8960854722      -10.2537066575       42.1755716454  TIP3      4094            0.0000000000
     37198      4294  TIP3      H2            -31.3243459144       -9.6611168551       43.4562515813  TIP3      4094            0.0000000000
     37199      4295  TIP3      OH2           -27.2666944082      -16.9765540330       40.6854037676  TIP3      4095            0.0000000000
     37200      4295  TIP3      H1            -28.2184553759      -16.8215393107       40.5517095812  TIP3      4095            0.0000000000
     37201      4295  TIP3      H2            -26.9260831216      -16.1258380413       41.0374698128  TIP3      4095            0.0000000000
     37202      4296  TIP3      OH2           -26.5288516845      -15.0514423766       42.3080942351  TIP3      4096            0.0000000000
     37203      4296  TIP3      H1            -25.6480233774      -15.1882805899       42.7166060576  TIP3      4096            0.0000000000
     37204      4296  TIP3      H2            -26.4198034506      -14.2293984425       41.8012585054  TIP3      4096            0.0000000000
     37205      4297  TIP3      OH2           -36.0912950001      -10.4445966359       48.2584499316  TIP3      4097            0.0000000000
     37206      4297  TIP3      H1            -35.3384089042      -10.4495265787       47.6426883158  TIP3      4097            0.0000000000
     37207      4297  TIP3      H2            -35.9041258750      -11.2619805573       48.7363150309  TIP3      4097            0.0000000000
     37208      4298  TIP3      OH2           -29.0020256347       -8.3200024761       41.5394611211  TIP3      4098            0.0000000000
     37209      4298  TIP3      H1            -29.3436190780       -7.4759278513       41.9014517885  TIP3      4098            0.0000000000
     37210      4298  TIP3      H2            -29.7281896098       -8.9395966347       41.7676125963  TIP3      4098            0.0000000000
     37211      4299  TIP3      OH2           -21.6218868296      -14.9281882003       42.0854897090  TIP3      4099            0.0000000000
     37212      4299  TIP3      H1            -22.1967605762      -15.2042776653       41.3481768595  TIP3      4099            0.0000000000
     37213      4299  TIP3      H2            -21.5487376664      -13.9754762283       41.8395670734  TIP3      4099            0.0000000000
     37214      4300  TIP3      OH2           -23.3759365975       -6.0869265645       42.4813703942  TIP3      4100            0.0000000000
     37215      4300  TIP3      H1            -23.7032892941       -6.9227173101       42.8323336802  TIP3      4100            0.0000000000
     37216      4300  TIP3      H2            -23.0184077781       -6.3074752911       41.6056041206  TIP3      4100            0.0000000000
     37217      4301  TIP3      OH2           -26.4493455809      -11.2018804411       48.8819386161  TIP3      4101            0.0000000000
     37218      4301  TIP3      H1            -27.2169250693      -11.4150912076       49.4510438137  TIP3      4101            0.0000000000
     37219      4301  TIP3      H2            -25.9316079800      -12.0326586109       48.8655045657  TIP3      4101            0.0000000000
     37220      4302  TIP3      OH2           -33.6256012593       -6.9313763047       45.7253618210  TIP3      4102            0.0000000000
     37221      4302  TIP3      H1            -33.1167066183       -6.1337133285       45.5011407187  TIP3      4102            0.0000000000
     37222      4302  TIP3      H2            -34.5027218497       -6.7048272543       45.3901618702  TIP3      4102            0.0000000000
     37223      4303  TIP3      OH2           -37.9156702018      -12.0873583771       40.2644256552  TIP3      4103            0.0000000000
     37224      4303  TIP3      H1            -37.2777009856      -11.4506209818       40.6505621182  TIP3      4103            0.0000000000
     37225      4303  TIP3      H2            -38.7554413422      -11.7221618069       40.5607880205  TIP3      4103            0.0000000000
     37226      4304  TIP3      OH2           -32.2053096639       -9.2598560965       45.1962402585  TIP3      4104            0.0000000000
     37227      4304  TIP3      H1            -32.5155688947       -8.3460260773       45.3194424169  TIP3      4104            0.0000000000
     37228      4304  TIP3      H2            -32.9193232063       -9.7587029824       45.6352768227  TIP3      4104            0.0000000000
     37229      4305  TIP3      OH2           -33.5008370267       -4.2790560676       44.7190969955  TIP3      4105            0.0000000000
     37230      4305  TIP3      H1            -34.4680460113       -4.1474036925       44.8447505381  TIP3      4105            0.0000000000
     37231      4305  TIP3      H2            -33.1405977338       -3.4477085076       45.0791817741  TIP3      4105            0.0000000000
     37232      4306  TIP3      OH2           -25.8817219312       -8.0130649231       40.3323735174  TIP3      4106            0.0000000000
     37233      4306  TIP3      H1            -25.5883522324       -8.4896659316       41.1349813747  TIP3      4106            0.0000000000
     37234      4306  TIP3      H2            -26.8353728418       -8.1995544286       40.4114524181  TIP3      4106            0.0000000000
     37235      4307  TIP3      OH2           -21.4215817101       -3.6644586108       40.5874695753  TIP3      4107            0.0000000000
     37236      4307  TIP3      H1            -20.7346729773       -2.9990969323       40.3806629624  TIP3      4107            0.0000000000
     37237      4307  TIP3      H2            -22.1365510836       -3.0529550254       40.8727318811  TIP3      4107            0.0000000000
     37238      4308  TIP3      OH2           -25.1097281103       -9.3851868854       42.5776589508  TIP3      4108            0.0000000000
     37239      4308  TIP3      H1            -25.3478427395      -10.1678141669       43.1250013053  TIP3      4108            0.0000000000
     37240      4308  TIP3      H2            -24.1564774389       -9.3406640041       42.7513914074  TIP3      4108            0.0000000000
     37241      4309  TIP3      OH2           -31.7721204892       -6.9438121087       38.8276559126  TIP3      4109            0.0000000000
     37242      4309  TIP3      H1            -31.6573089524       -7.7089031980       38.2414652660  TIP3      4109            0.0000000000
     37243      4309  TIP3      H2            -32.2020398866       -7.3780892404       39.5955419173  TIP3      4109            0.0000000000
     37244      4310  TIP3      OH2           -32.9949911609       -7.4211623247       41.2703829565  TIP3      4110            0.0000000000
     37245      4310  TIP3      H1            -32.7361595300       -7.9341280098       42.0443821039  TIP3      4110            0.0000000000
     37246      4310  TIP3      H2            -32.9136669235       -6.4949430308       41.5952699924  TIP3      4110            0.0000000000
     37247      4311  TIP3      OH2           -36.4865195945      -10.1764766344       41.7262203997  TIP3      4111            0.0000000000
     37248      4311  TIP3      H1            -37.1714207148       -9.7913815239       42.3175911168  TIP3      4111            0.0000000000
     37249      4311  TIP3      H2            -35.9467380919       -9.3992619680       41.4861328350  TIP3      4111            0.0000000000
     37250      4312  TIP3      OH2           -27.8716678262      -17.9186297975       43.1705447610  TIP3      4112            0.0000000000
     37251      4312  TIP3      H1            -27.6399123808      -17.4546398340       42.3437850432  TIP3      4112            0.0000000000
     37252      4312  TIP3      H2            -27.2945981360      -17.4730350375       43.8047687373  TIP3      4112            0.0000000000
     37253      4313  TIP3      OH2           -30.1840143606       -5.7583189190       41.9708773596  TIP3      4113            0.0000000000
     37254      4313  TIP3      H1            -30.9986131602       -5.2233157166       42.0466704962  TIP3      4113            0.0000000000
     37255      4313  TIP3      H2            -29.6411150897       -5.2048026095       41.3899452603  TIP3      4113            0.0000000000
     37256      4314  TIP3      OH2           -30.6352966678      -16.1659532050       43.9805553920  TIP3      4114            0.0000000000
     37257      4314  TIP3      H1            -29.8575635956      -15.5773359678       44.0381443118  TIP3      4114            0.0000000000
     37258      4314  TIP3      H2            -30.9074002299      -16.3004220160       44.9072403010  TIP3      4114            0.0000000000
     37259      4315  TIP3      OH2           -29.7835582401      -19.1026415411       44.8693605505  TIP3      4115            0.0000000000
     37260      4315  TIP3      H1            -30.1065246998      -18.4593188228       45.5271530744  TIP3      4115            0.0000000000
     37261      4315  TIP3      H2            -29.0901623934      -18.5547599660       44.4292116509  TIP3      4115            0.0000000000
     37262      4316  TIP3      OH2           -32.7818835865       -4.7245921025       42.0012393553  TIP3      4116            0.0000000000
     37263      4316  TIP3      H1            -32.6817678381       -3.9105739526       41.4496077644  TIP3      4116            0.0000000000
     37264      4316  TIP3      H2            -33.0436407760       -4.3549010279       42.8738698106  TIP3      4116            0.0000000000
     37265      4317  TIP3      OH2           -34.1231188325      -18.0022350745       41.5839210375  TIP3      4117            0.0000000000
     37266      4317  TIP3      H1            -34.1793170295      -17.1032382477       41.9672386182  TIP3      4117            0.0000000000
     37267      4317  TIP3      H2            -33.2148360263      -18.2433169118       41.8483335900  TIP3      4117            0.0000000000
     37268      4318  TIP3      OH2           -25.3315916133      -13.4279316072       47.9622245934  TIP3      4118            0.0000000000
     37269      4318  TIP3      H1            -26.1456092582      -13.9163801328       47.7567252443  TIP3      4118            0.0000000000
     37270      4318  TIP3      H2            -24.8345989514      -14.1162426627       48.4664366354  TIP3      4118            0.0000000000
     37271      4319  TIP3      OH2           -35.8381831392       -7.5384822764       40.6355826714  TIP3      4119            0.0000000000
     37272      4319  TIP3      H1            -35.1765122310       -6.9084178639       40.9350449376  TIP3      4119            0.0000000000
     37273      4319  TIP3      H2            -35.3336326197       -8.0102612661       39.9436035598  TIP3      4119            0.0000000000
     37274      4320  TIP3      OH2           -37.5530693726      -14.8834209010       39.7916123164  TIP3      4120            0.0000000000
     37275      4320  TIP3      H1            -37.5378055959      -13.9258119504       39.9716950083  TIP3      4120            0.0000000000
     37276      4320  TIP3      H2            -38.4398740297      -15.0442992650       39.4610841113  TIP3      4120            0.0000000000
     37277      4321  TIP3      OH2           -23.9389325759       -3.9806005071       49.6023277724  TIP3      4121            0.0000000000
     37278      4321  TIP3      H1            -24.1153617599       -3.3323403771       48.8817918339  TIP3      4121            0.0000000000
     37279      4321  TIP3      H2            -22.9949181920       -3.9811473956       49.7580603908  TIP3      4121            0.0000000000
     37280      4322  TIP3      OH2           -36.7296857256      -20.1327787932       48.4583090275  TIP3      4122            0.0000000000
     37281      4322  TIP3      H1            -36.9625501143      -20.0964531489       47.5097278761  TIP3      4122            0.0000000000
     37282      4322  TIP3      H2            -37.1652978795      -20.9540460454       48.7497798337  TIP3      4122            0.0000000000
     37283      4323  TIP3      OH2           -37.7608055884       -6.1785789336       44.6799503463  TIP3      4123            0.0000000000
     37284      4323  TIP3      H1            -38.6139526564       -5.7291592103       44.6345880801  TIP3      4123            0.0000000000
     37285      4323  TIP3      H2            -37.2757742706       -5.7075844937       43.9887005839  TIP3      4123            0.0000000000
     37286      4324  TIP3      OH2           -29.7622410853       -5.0953855131       38.9513534881  TIP3      4124            0.0000000000
     37287      4324  TIP3      H1            -30.4552794283       -5.7539698256       39.1780801390  TIP3      4124            0.0000000000
     37288      4324  TIP3      H2            -29.0438686724       -5.6939813508       38.7037431106  TIP3      4124            0.0000000000
     37289      4325  TIP3      OH2           -25.2045588803       -5.3501530912       39.1383704303  TIP3      4125            0.0000000000
     37290      4325  TIP3      H1            -24.9085901993       -6.1265933260       39.6408780688  TIP3      4125            0.0000000000
     37291      4325  TIP3      H2            -24.4417571711       -5.1274602213       38.5856916159  TIP3      4125            0.0000000000
     37292      4326  TIP3      OH2           -34.3277783815       -9.4115628319       38.9561507310  TIP3      4126            0.0000000000
     37293      4326  TIP3      H1            -34.1774916797      -10.1679979623       39.5459603105  TIP3      4126            0.0000000000
     37294      4326  TIP3      H2            -33.5752399066       -9.5230187964       38.3413860236  TIP3      4126            0.0000000000
     37295      4327  TIP3      OH2           -28.8871554633       -8.2999393477       38.7333032916  TIP3      4127            0.0000000000
     37296      4327  TIP3      H1            -29.1571905023       -8.2202950101       39.6619371832  TIP3      4127            0.0000000000
     37297      4327  TIP3      H2            -29.0751970210       -9.2577627797       38.5881963751  TIP3      4127            0.0000000000
     37298      4328  TIP3      OH2           -33.1203043978      -11.3894027301       41.3804672095  TIP3      4128            0.0000000000
     37299      4328  TIP3      H1            -33.6123041497      -11.9350828026       42.0115312905  TIP3      4128            0.0000000000
     37300      4328  TIP3      H2            -32.8147135657      -12.0630788020       40.7289473130  TIP3      4128            0.0000000000
     37301      4329  TIP3      OH2           -32.0512004236      -13.1635390274       39.5850179418  TIP3      4129            0.0000000000
     37302      4329  TIP3      H1            -32.1952562739      -13.2559592712       38.6227448557  TIP3      4129            0.0000000000
     37303      4329  TIP3      H2            -31.0723855817      -13.1174332923       39.6514793979  TIP3      4129            0.0000000000
     37304      4330  TIP3      OH2           -22.7107610527      -10.8497639057       38.9925727816  TIP3      4130            0.0000000000
     37305      4330  TIP3      H1            -22.8999266449      -11.2297186858       38.1216797921  TIP3      4130            0.0000000000
     37306      4330  TIP3      H2            -22.6209600980       -9.8874478144       38.8077596301  TIP3      4130            0.0000000000
     37307      4331  TIP3      OH2           -32.2079324333       -2.4660647078       40.6639559093  TIP3      4131            0.0000000000
     37308      4331  TIP3      H1            -31.2409121854       -2.3839014949       40.7300818553  TIP3      4131            0.0000000000
     37309      4331  TIP3      H2            -32.3521601792       -1.8676234015       39.9221482367  TIP3      4131            0.0000000000
     37310      4332  TIP3      OH2           -38.2539582969       -7.7732638809       39.8326410392  TIP3      4132            0.0000000000
     37311      4332  TIP3      H1            -37.3750938887       -7.8491728352       40.2732684097  TIP3      4132            0.0000000000
     37312      4332  TIP3      H2            -38.3567645503       -8.6190983794       39.3588127740  TIP3      4132            0.0000000000
     37313      4333  TIP3      OH2            40.2899128047       -2.3192295493       44.9002789238  TIP3      4133            0.0000000000
     37314      4333  TIP3      H1             39.4798331940       -2.7542586872       44.5767110460  TIP3      4133            0.0000000000
     37315      4333  TIP3      H2             40.3986947018       -2.9597313422       45.6335698467  TIP3      4133            0.0000000000
     37316      4334  TIP3      OH2           -38.9701810561       -4.3735906961       47.0237173906  TIP3      4134            0.0000000000
     37317      4334  TIP3      H1            -39.2793605313       -5.2802226050       47.1953316675  TIP3      4134            0.0000000000
     37318      4334  TIP3      H2            -38.7312081986       -4.0681980187       47.9251824378  TIP3      4134            0.0000000000
     37319      4335  TIP3      OH2           -22.1775868029       -9.9255925788       42.9430959726  TIP3      4135            0.0000000000
     37320      4335  TIP3      H1            -21.3096956604       -9.5408055189       43.1345997839  TIP3      4135            0.0000000000
     37321      4335  TIP3      H2            -22.1934337398      -10.6512337253       43.6047083681  TIP3      4135            0.0000000000
     37322      4336  TIP3      OH2           -21.8307792955      -11.8522445812       44.8170012066  TIP3      4136            0.0000000000
     37323      4336  TIP3      H1            -22.5688529084      -12.3519254407       45.2273224243  TIP3      4136            0.0000000000
     37324      4336  TIP3      H2            -21.2147730191      -11.7217040751       45.5727000189  TIP3      4136            0.0000000000
     37325      4337  TIP3      OH2           -21.9588334801       -8.9047963614       49.6935128268  TIP3      4137            0.0000000000
     37326      4337  TIP3      H1            -21.1637735526       -9.4198097489       49.4616467848  TIP3      4137            0.0000000000
     37327      4337  TIP3      H2            -21.7691606973       -7.9649135955       49.5688704040  TIP3      4137            0.0000000000
     37328      4338  TIP3      OH2           -21.5169009346      -12.0315013333       41.2281606770  TIP3      4138            0.0000000000
     37329      4338  TIP3      H1            -22.0838347428      -11.6911816187       40.5044209425  TIP3      4138            0.0000000000
     37330      4338  TIP3      H2            -21.6176102326      -11.3174588902       41.8849374011  TIP3      4138            0.0000000000
     37331      4339  TIP3      OH2           -23.1386384863      -14.8073389053       39.7367589997  TIP3      4139            0.0000000000
     37332      4339  TIP3      H1            -23.0652892430      -14.1397186121       39.0445895019  TIP3      4139            0.0000000000
     37333      4339  TIP3      H2            -23.3280472823      -15.6283573451       39.2438493065  TIP3      4139            0.0000000000
     37334      4340  TIP3      OH2           -23.9942588415      -13.3910256803       45.4336271240  TIP3      4140            0.0000000000
     37335      4340  TIP3      H1            -24.1393984968      -14.3479770371       45.3815542533  TIP3      4140            0.0000000000
     37336      4340  TIP3      H2            -24.3415802070      -13.1892598365       46.3227128434  TIP3      4140            0.0000000000
     37337      4341  TIP3      OH2           -38.8894447719      -11.5020945096       49.4735149188  TIP3      4141            0.0000000000
     37338      4341  TIP3      H1            -38.6940906066      -11.4435632356       48.5127727353  TIP3      4141            0.0000000000
     37339      4341  TIP3      H2            -38.0161166033      -11.4857876808       49.8841672010  TIP3      4141            0.0000000000
     37340      4342  TIP3      OH2           -23.8882561808      -17.3354141211       38.8766087255  TIP3      4142            0.0000000000
     37341      4342  TIP3      H1            -23.3043550367      -17.7705364284       39.5225814935  TIP3      4142            0.0000000000
     37342      4342  TIP3      H2            -24.7580098966      -17.7438632078       39.0298569872  TIP3      4142            0.0000000000
     37343      4343  TIP3      OH2           -24.3519250786      -15.8027691143       43.8179790153  TIP3      4143            0.0000000000
     37344      4343  TIP3      H1            -24.0343674609      -16.7212204747       43.9839182264  TIP3      4143            0.0000000000
     37345      4343  TIP3      H2            -23.5269984889      -15.3933663430       43.5219136828  TIP3      4143            0.0000000000
     37346      4344  TIP3      OH2           -23.7237512852      -15.1352428357       48.8706628657  TIP3      4144            0.0000000000
     37347      4344  TIP3      H1            -22.7630087177      -15.1029204815       49.0674450330  TIP3      4144            0.0000000000
     37348      4344  TIP3      H2            -24.0912718407      -15.2077201010       49.7783319731  TIP3      4144            0.0000000000
     37349      4345  TIP3      OH2           -23.6579658839      -18.5118623120       43.9110566202  TIP3      4145            0.0000000000
     37350      4345  TIP3      H1            -23.4461618294      -18.9440417343       44.7677980161  TIP3      4145            0.0000000000
     37351      4345  TIP3      H2            -24.2558646373      -19.1512955628       43.4750390306  TIP3      4145            0.0000000000
     37352      4346  TIP3      OH2           -38.1535336154      -17.6799243422       48.3883966319  TIP3      4146            0.0000000000
     37353      4346  TIP3      H1            -37.7526742293      -18.5223424134       48.6937374114  TIP3      4146            0.0000000000
     37354      4346  TIP3      H2            -37.6210392535      -17.0335394759       48.8825046660  TIP3      4146            0.0000000000
     37355      4347  TIP3      OH2           -39.8643799576      -14.1471326127       49.4501673546  TIP3      4147            0.0000000000
     37356      4347  TIP3      H1            -39.3433742324      -14.6244111377       48.7735774922  TIP3      4147            0.0000000000
     37357      4347  TIP3      H2            -39.2008987000      -13.5869176547       49.8497731171  TIP3      4147            0.0000000000
     37358      4348  TIP3      OH2           -21.8418888655      -18.4780611188       40.4624580503  TIP3      4148            0.0000000000
     37359      4348  TIP3      H1            -21.4275971057      -19.1905825151       39.9280010677  TIP3      4148            0.0000000000
     37360      4348  TIP3      H2            -21.1356970707      -17.8160198253       40.5120568277  TIP3      4148            0.0000000000
     37361      4349  TIP3      OH2           -39.4909802448      -18.4296481347       43.4910300012  TIP3      4149            0.0000000000
     37362      4349  TIP3      H1            -40.4345300803      -18.2611048379       43.4047987157  TIP3      4149            0.0000000000
     37363      4349  TIP3      H2            -39.0504678203      -17.9156518272       42.7928201107  TIP3      4149            0.0000000000
     37364      4350  TIP3      OH2           -24.7819583612       -3.4914626760       45.5237483014  TIP3      4150            0.0000000000
     37365      4350  TIP3      H1            -24.1070345911       -3.7903613320       44.8884667022  TIP3      4150            0.0000000000
     37366      4350  TIP3      H2            -24.2688604451       -2.9760048404       46.1642184740  TIP3      4150            0.0000000000
     37367      4351  TIP3      OH2           -37.6690458086       -3.6481447707       49.0637504383  TIP3      4151            0.0000000000
     37368      4351  TIP3      H1            -37.6976202808       -4.0394958831       49.9434203275  TIP3      4151            0.0000000000
     37369      4351  TIP3      H2            -36.8719065072       -4.1120442402       48.7281594769  TIP3      4151            0.0000000000
     37370      4352  TIP3      OH2           -35.5264366633       -4.9495261856       47.9729154448  TIP3      4152            0.0000000000
     37371      4352  TIP3      H1            -35.6447637670       -5.9193519878       48.0603851015  TIP3      4152            0.0000000000
     37372      4352  TIP3      H2            -34.6158165676       -4.8827942612       48.3330077349  TIP3      4152            0.0000000000
     37373      4353  TIP3      OH2           -32.9886325505       -4.5172746294       48.7822331007  TIP3      4153            0.0000000000
     37374      4353  TIP3      H1            -32.6964959335       -5.4046958807       48.4910163487  TIP3      4153            0.0000000000
     37375      4353  TIP3      H2            -32.8346263603       -4.5984207759       49.7268356362  TIP3      4153            0.0000000000
     37376      4354  TIP3      OH2           -29.4197386207      -18.7975620723       47.9006930164  TIP3      4154            0.0000000000
     37377      4354  TIP3      H1            -30.0639207915      -19.4506091902       48.2366632745  TIP3      4154            0.0000000000
     37378      4354  TIP3      H2            -28.8492701734      -19.3804043823       47.3831436107  TIP3      4154            0.0000000000
     37379      4355  TIP3      OH2           -24.2730141708      -20.7576384346       47.9855880395  TIP3      4155            0.0000000000
     37380      4355  TIP3      H1            -23.6794790173      -20.1702103685       47.4676673745  TIP3      4155            0.0000000000
     37381      4355  TIP3      H2            -25.1674403804      -20.4100478706       47.7917911701  TIP3      4155            0.0000000000
     37382      4356  TIP3      OH2           -22.5934395070      -19.5500868805       46.2633470191  TIP3      4156            0.0000000000
     37383      4356  TIP3      H1            -21.9201768628      -20.1247868379       45.8376714609  TIP3      4156            0.0000000000
     37384      4356  TIP3      H2            -22.0992654786      -18.7046296889       46.3537856378  TIP3      4156            0.0000000000
     37385      4357  TIP3      OH2           -37.0439880185      -20.2098244761       45.7188309255  TIP3      4157            0.0000000000
     37386      4357  TIP3      H1            -37.8397892442      -20.4342460174       45.2007148852  TIP3      4157            0.0000000000
     37387      4357  TIP3      H2            -36.5892340993      -21.0765390571       45.7357825056  TIP3      4157            0.0000000000
     37388      4358  TIP3      OH2           -38.3282599072      -20.4975751061       41.4604529902  TIP3      4158            0.0000000000
     37389      4358  TIP3      H1            -37.7862702117      -19.8595408890       40.9561968840  TIP3      4158            0.0000000000
     37390      4358  TIP3      H2            -38.8278921092      -19.9086179568       42.0552671238  TIP3      4158            0.0000000000
     37391      4359  TIP3      OH2           -32.5764785552      -20.3297811033       45.5583204062  TIP3      4159            0.0000000000
     37392      4359  TIP3      H1            -31.6883851230      -19.9422725427       45.4716725350  TIP3      4159            0.0000000000
     37393      4359  TIP3      H2            -32.6093317324      -20.5311340052       46.4944191750  TIP3      4159            0.0000000000
     37394      4360  TIP3      OH2           -26.8525566177      -20.2679674364       47.1556707506  TIP3      4160            0.0000000000
     37395      4360  TIP3      H1            -26.9099716302      -20.1627095862       46.2050997320  TIP3      4160            0.0000000000
     37396      4360  TIP3      H2            -27.2578893947      -21.1537504689       47.3149792822  TIP3      4160            0.0000000000
     37397      4361  TIP3      OH2           -25.5981028969      -20.2564523751       42.8631369479  TIP3      4161            0.0000000000
     37398      4361  TIP3      H1            -26.3465629450      -19.6613908979       42.7061021993  TIP3      4161            0.0000000000
     37399      4361  TIP3      H2            -26.0405624907      -21.1065187249       43.1007238553  TIP3      4161            0.0000000000
     37400      4362  TIP3      OH2           -38.3778364949       -4.5319945589       42.4961037696  TIP3      4162            0.0000000000
     37401      4362  TIP3      H1            -39.0377798803       -4.5248830038       41.7986881378  TIP3      4162            0.0000000000
     37402      4362  TIP3      H2            -38.3499956930       -3.5817213751       42.6892999153  TIP3      4162            0.0000000000
     37403      4363  TIP3      OH2           -36.4569440862      -18.5424262509       39.9940558799  TIP3      4163            0.0000000000
     37404      4363  TIP3      H1            -35.9021392755      -19.1502193861       39.4762899408  TIP3      4163            0.0000000000
     37405      4363  TIP3      H2            -35.7880333900      -18.2225534264       40.6290578313  TIP3      4163            0.0000000000
     37406      4364  TIP3      OH2           -31.4281886405      -18.2914004103       42.4064142933  TIP3      4164            0.0000000000
     37407      4364  TIP3      H1            -31.1702250854      -18.8657875947       43.1468052195  TIP3      4164            0.0000000000
     37408      4364  TIP3      H2            -31.3546925569      -17.4231778942       42.8612452703  TIP3      4164            0.0000000000
     37409      4365  TIP3      OH2           -29.4927263144       -3.2142463710       40.8528505262  TIP3      4165            0.0000000000
     37410      4365  TIP3      H1            -28.5745170095       -2.9904420083       40.6306544005  TIP3      4165            0.0000000000
     37411      4365  TIP3      H2            -29.7140913290       -3.7361328962       40.0528968735  TIP3      4165            0.0000000000
     37412      4366  TIP3      OH2           -22.7944469848       -3.7191835991       43.5715339447  TIP3      4166            0.0000000000
     37413      4366  TIP3      H1            -22.9917052912       -4.4993518420       43.0023198680  TIP3      4166            0.0000000000
     37414      4366  TIP3      H2            -22.8654279720       -2.9814462112       42.9296621678  TIP3      4166            0.0000000000
     37415      4367  TIP3      OH2           -36.6036582728       -3.5750621069       39.4461248399  TIP3      4167            0.0000000000
     37416      4367  TIP3      H1            -36.8122459533       -3.2726676721       40.3397426239  TIP3      4167            0.0000000000
     37417      4367  TIP3      H2            -35.7847402556       -4.0897058140       39.6048067361  TIP3      4167            0.0000000000
     37418      4368  TIP3      OH2            -9.1102437829      -11.0917839360       45.6302580799  TIP3      4168            0.0000000000
     37419      4368  TIP3      H1             -9.1131443276      -10.1102887560       45.6002019501  TIP3      4168            0.0000000000
     37420      4368  TIP3      H2             -9.8366253226      -11.3187441335       45.0262289115  TIP3      4168            0.0000000000
     37421      4369  TIP3      OH2           -10.2335280771      -11.8341847001       49.1376178994  TIP3      4169            0.0000000000
     37422      4369  TIP3      H1            -10.3033953814      -12.4798148192       49.8635966429  TIP3      4169            0.0000000000
     37423      4369  TIP3      H2            -10.5420178983      -12.3122684797       48.3546593071  TIP3      4169            0.0000000000
     37424      4370  TIP3      OH2            -6.6577346003       -8.9258357287       47.3514373437  TIP3      4170            0.0000000000
     37425      4370  TIP3      H1             -6.9972448353       -9.6444224407       47.9124471391  TIP3      4170            0.0000000000
     37426      4370  TIP3      H2             -6.5175512199       -8.2373941695       48.0586827015  TIP3      4170            0.0000000000
     37427      4371  TIP3      OH2           -16.9798882840       -7.6414611841       49.0556697275  TIP3      4171            0.0000000000
     37428      4371  TIP3      H1            -17.2835787898       -8.5515276026       48.8664792830  TIP3      4171            0.0000000000
     37429      4371  TIP3      H2            -16.0357439539       -7.8686975025       49.2188895624  TIP3      4171            0.0000000000
     37430      4372  TIP3      OH2           -20.3300287391      -14.1634571352       44.6771350111  TIP3      4172            0.0000000000
     37431      4372  TIP3      H1            -20.7556878047      -13.2883435931       44.6020648511  TIP3      4172            0.0000000000
     37432      4372  TIP3      H2            -20.8984915718      -14.6970423229       44.1029112261  TIP3      4172            0.0000000000
     37433      4373  TIP3      OH2           -19.6451160408      -11.9442708454       46.7702640279  TIP3      4173            0.0000000000
     37434      4373  TIP3      H1            -19.3693087182      -12.7344341486       47.2665760494  TIP3      4173            0.0000000000
     37435      4373  TIP3      H2            -18.9077473914      -11.8268120432       46.1569962033  TIP3      4173            0.0000000000
     37436      4374  TIP3      OH2            -9.4512437109       -3.7230745331       47.6879908525  TIP3      4174            0.0000000000
     37437      4374  TIP3      H1             -8.7946811283       -4.3920605351       47.3648807456  TIP3      4174            0.0000000000
     37438      4374  TIP3      H2             -9.6371503793       -4.0609276547       48.5618716404  TIP3      4174            0.0000000000
     37439      4375  TIP3      OH2           -11.8212345324       -9.3749785808       49.5643291009  TIP3      4175            0.0000000000
     37440      4375  TIP3      H1            -11.4845011316      -10.0668202063       48.9721595194  TIP3      4175            0.0000000000
     37441      4375  TIP3      H2            -11.0673315356       -9.3069433926       50.1580655358  TIP3      4175            0.0000000000
     37442      4376  TIP3      OH2            -8.6656514892      -14.9675228651       49.8909557827  TIP3      4176            0.0000000000
     37443      4376  TIP3      H1             -8.5504366408      -15.9316921086       49.9034058858  TIP3      4176            0.0000000000
     37444      4376  TIP3      H2             -8.7866626869      -14.8208812800       48.9283150501  TIP3      4176            0.0000000000
     37445      4377  TIP3      OH2           -15.5706452402      -16.8871108950       47.1110583113  TIP3      4177            0.0000000000
     37446      4377  TIP3      H1            -15.4876074272      -16.0417741066       46.6369601522  TIP3      4177            0.0000000000
     37447      4377  TIP3      H2            -15.9990515426      -17.4592929018       46.4383936819  TIP3      4177            0.0000000000
     37448      4378  TIP3      OH2            -7.8738626274      -16.7873095151       45.4778330607  TIP3      4178            0.0000000000
     37449      4378  TIP3      H1             -7.2351210860      -17.1144174901       46.1574034319  TIP3      4178            0.0000000000
     37450      4378  TIP3      H2             -7.2864407786      -16.2151737547       44.9664888548  TIP3      4178            0.0000000000
     37451      4379  TIP3      OH2           -18.9837841025      -14.5065014773       47.8584161294  TIP3      4179            0.0000000000
     37452      4379  TIP3      H1            -18.3017344321      -15.0311110658       48.3242241271  TIP3      4179            0.0000000000
     37453      4379  TIP3      H2            -18.8375871495      -14.7974548852       46.9395619273  TIP3      4179            0.0000000000
     37454      4380  TIP3      OH2           -13.8049339384      -12.9305295927       47.1583454532  TIP3      4180            0.0000000000
     37455      4380  TIP3      H1            -13.1337274498      -13.5134568188       47.5628882915  TIP3      4180            0.0000000000
     37456      4380  TIP3      H2            -14.3299427894      -13.5755318705       46.6439839331  TIP3      4180            0.0000000000
     37457      4381  TIP3      OH2            -9.4139607117       -8.4982850100       44.7363105977  TIP3      4181            0.0000000000
     37458      4381  TIP3      H1             -9.6520888545       -8.7741246507       43.8433012152  TIP3      4181            0.0000000000
     37459      4381  TIP3      H2             -9.7010414366       -7.5598481043       44.7789650659  TIP3      4181            0.0000000000
     37460      4382  TIP3      OH2            -6.1063430549      -17.4552152309       47.4658386619  TIP3      4182            0.0000000000
     37461      4382  TIP3      H1             -6.2775331101      -18.2033186075       48.0528586655  TIP3      4182            0.0000000000
     37462      4382  TIP3      H2             -5.4185358996      -17.0160103434       48.0025004114  TIP3      4182            0.0000000000
     37463      4383  TIP3      OH2           -17.1135269080      -16.1173287955       49.1293109878  TIP3      4183            0.0000000000
     37464      4383  TIP3      H1            -16.5473653849      -15.4244017260       49.4672126382  TIP3      4183            0.0000000000
     37465      4383  TIP3      H2            -16.5884445330      -16.5429732278       48.4212488042  TIP3      4183            0.0000000000
     37466      4384  TIP3      OH2           -19.6438684366       -8.7209938104       43.0180708907  TIP3      4184            0.0000000000
     37467      4384  TIP3      H1            -19.8958340501       -8.3805070275       42.1414632068  TIP3      4184            0.0000000000
     37468      4384  TIP3      H2            -19.5655113159       -7.8942258524       43.5351855489  TIP3      4184            0.0000000000
     37469      4385  TIP3      OH2            -5.9843638954       -7.3331002158       49.2787582238  TIP3      4185            0.0000000000
     37470      4385  TIP3      H1             -6.7725197182       -7.2197732795       49.8526419828  TIP3      4185            0.0000000000
     37471      4385  TIP3      H2             -5.6257378984       -6.4582835663       49.4595127980  TIP3      4185            0.0000000000
     37472      4386  TIP3      OH2           -12.7195230759      -20.6108428952       48.5965684833  TIP3      4186            0.0000000000
     37473      4386  TIP3      H1            -12.8114725763      -21.5813960712       48.5597600422  TIP3      4186            0.0000000000
     37474      4386  TIP3      H2            -13.6085801956      -20.3262696986       48.8947497397  TIP3      4186            0.0000000000
     37475      4387  TIP3      OH2            -7.8116595074       -5.2586806028       46.3495358375  TIP3      4187            0.0000000000
     37476      4387  TIP3      H1             -7.3591809959       -5.9781352841       45.8565079142  TIP3      4187            0.0000000000
     37477      4387  TIP3      H2             -7.3524622089       -4.4667955857       45.9953004760  TIP3      4187            0.0000000000
     37478      4388  TIP3      OH2            -6.5683603002       -7.3099137861       44.9125535203  TIP3      4188            0.0000000000
     37479      4388  TIP3      H1             -6.8617460380       -8.0185137992       44.3148627878  TIP3      4188            0.0000000000
     37480      4388  TIP3      H2             -6.5299558954       -7.8117351959       45.7484794935  TIP3      4188            0.0000000000
     37481      4389  TIP3      OH2           -10.4553180839      -11.8546365045       43.1397120460  TIP3      4189            0.0000000000
     37482      4389  TIP3      H1            -11.1470926934      -11.2741811433       42.7764679543  TIP3      4189            0.0000000000
     37483      4389  TIP3      H2             -9.7419323703      -11.7583419467       42.4787866688  TIP3      4189            0.0000000000
     37484      4390  TIP3      OH2           -10.3683952009      -13.2818102676       40.1493871701  TIP3      4190            0.0000000000
     37485      4390  TIP3      H1             -9.6646089438      -13.3007533128       40.8152994638  TIP3      4190            0.0000000000
     37486      4390  TIP3      H2            -10.0632880962      -14.0017106424       39.5823839643  TIP3      4190            0.0000000000
     37487      4391  TIP3      OH2            -6.9968463493      -11.6391415983       44.0526651727  TIP3      4191            0.0000000000
     37488      4391  TIP3      H1             -7.7465854750      -11.4010778728       44.6476094770  TIP3      4191            0.0000000000
     37489      4391  TIP3      H2             -6.5343302153      -12.3217829404       44.5671402748  TIP3      4191            0.0000000000
     37490      4392  TIP3      OH2           -15.4063610710      -10.9898426595       45.9831098536  TIP3      4192            0.0000000000
     37491      4392  TIP3      H1            -15.7276965732      -11.3699133856       45.1329815889  TIP3      4192            0.0000000000
     37492      4392  TIP3      H2            -14.7620002459      -11.6682679019       46.2743500662  TIP3      4192            0.0000000000
     37493      4393  TIP3      OH2           -13.9944591619       -7.5318173876       48.6217590943  TIP3      4193            0.0000000000
     37494      4393  TIP3      H1            -14.0676821939       -8.1096962216       47.8486308082  TIP3      4193            0.0000000000
     37495      4393  TIP3      H2            -13.2844539972       -7.9638354251       49.1270112555  TIP3      4193            0.0000000000
     37496      4394  TIP3      OH2           -15.1707699943      -12.1545317599       49.4844932833  TIP3      4194            0.0000000000
     37497      4394  TIP3      H1            -14.5299949496      -12.0841857092       48.7623798792  TIP3      4194            0.0000000000
     37498      4394  TIP3      H2            -14.7141007413      -11.6935197471       50.2080518023  TIP3      4194            0.0000000000
     37499      4395  TIP3      OH2            -8.1212238257      -12.4354820970       41.7297206494  TIP3      4195            0.0000000000
     37500      4395  TIP3      H1             -7.5683172672      -12.2574537164       42.5329080516  TIP3      4195            0.0000000000
     37501      4395  TIP3      H2             -7.6714465825      -11.9429435090       41.0062466178  TIP3      4195            0.0000000000
     37502      4396  TIP3      OH2           -10.4167640408       -5.7326991743       45.1838184671  TIP3      4196            0.0000000000
     37503      4396  TIP3      H1             -9.9812979330       -5.4199031046       45.9856388295  TIP3      4196            0.0000000000
     37504      4396  TIP3      H2            -10.9730866740       -4.9782299613       44.9519447026  TIP3      4196            0.0000000000
     37505      4397  TIP3      OH2            -4.3990989878      -20.7100420215       41.6350357025  TIP3      4197            0.0000000000
     37506      4397  TIP3      H1             -5.3473928271      -20.5951154133       41.8717970782  TIP3      4197            0.0000000000
     37507      4397  TIP3      H2             -4.1986521896      -19.8689171714       41.1882272671  TIP3      4197            0.0000000000
     37508      4398  TIP3      OH2           -16.4359637706      -11.9609782026       43.6221531992  TIP3      4198            0.0000000000
     37509      4398  TIP3      H1            -16.7090723610      -11.1810247917       43.0930317544  TIP3      4198            0.0000000000
     37510      4398  TIP3      H2            -17.0735035825      -12.6305465306       43.3600784656  TIP3      4198            0.0000000000
     37511      4399  TIP3      OH2            -3.2878575858       -6.3572359961       39.9802847962  TIP3      4199            0.0000000000
     37512      4399  TIP3      H1             -3.1208176981       -5.4135270213       40.1503253009  TIP3      4199            0.0000000000
     37513      4399  TIP3      H2             -2.3643992896       -6.6699726813       39.9785556844  TIP3      4199            0.0000000000
     37514      4400  TIP3      OH2           -20.5012644504       -6.6171819076       49.0687620480  TIP3      4200            0.0000000000
     37515      4400  TIP3      H1            -19.5996793752       -6.9068808875       49.2619447782  TIP3      4200            0.0000000000
     37516      4400  TIP3      H2            -20.6805155795       -5.9548073736       49.7408604811  TIP3      4200            0.0000000000
     37517      4401  TIP3      OH2           -10.9300591585       -2.8080091700       43.6115684373  TIP3      4201            0.0000000000
     37518      4401  TIP3      H1            -11.0433044871       -2.8852473237       42.6476355738  TIP3      4201            0.0000000000
     37519      4401  TIP3      H2            -10.9298485350       -1.8456638621       43.7673444710  TIP3      4201            0.0000000000
     37520      4402  TIP3      OH2           -17.2763642522       -3.9464765933       45.4112130360  TIP3      4202            0.0000000000
     37521      4402  TIP3      H1            -17.1360998165       -4.3451020301       46.2976850970  TIP3      4202            0.0000000000
     37522      4402  TIP3      H2            -18.1403174806       -4.3352605482       45.1953740407  TIP3      4202            0.0000000000
     37523      4403  TIP3      OH2            -7.8764141803       -3.5943464414       40.5863310044  TIP3      4203            0.0000000000
     37524      4403  TIP3      H1             -7.4198638118       -4.3527273707       40.1584174983  TIP3      4203            0.0000000000
     37525      4403  TIP3      H2             -7.8392007710       -3.8506582239       41.5355989536  TIP3      4203            0.0000000000
     37526      4404  TIP3      OH2            -8.1799479415       -3.6598193999       43.3704084465  TIP3      4204            0.0000000000
     37527      4404  TIP3      H1             -9.1426519743       -3.5845997864       43.5398249174  TIP3      4204            0.0000000000
     37528      4404  TIP3      H2             -7.9494768802       -4.4035164562       43.9486780037  TIP3      4204            0.0000000000
     37529      4405  TIP3      OH2           -15.3880691918      -19.7614062988       49.4206487824  TIP3      4205            0.0000000000
     37530      4405  TIP3      H1            -16.2558109338      -19.8691542641       48.9656220405  TIP3      4205            0.0000000000
     37531      4405  TIP3      H2            -15.4590169453      -18.8947699300       49.8273979681  TIP3      4205            0.0000000000
     37532      4406  TIP3      OH2            -6.6774942034      -11.4053031502       39.5425030799  TIP3      4206            0.0000000000
     37533      4406  TIP3      H1             -6.6987404965      -11.6002566218       38.5771187849  TIP3      4206            0.0000000000
     37534      4406  TIP3      H2             -5.8171034334      -10.9639056419       39.5947849424  TIP3      4206            0.0000000000
     37535      4407  TIP3      OH2           -11.0810164305      -17.4845757703       40.0533345534  TIP3      4207            0.0000000000
     37536      4407  TIP3      H1            -11.3951023828      -17.5487504306       40.9739557707  TIP3      4207            0.0000000000
     37537      4407  TIP3      H2            -11.3886353124      -18.3616398651       39.7459155662  TIP3      4207            0.0000000000
     37538      4408  TIP3      OH2           -15.3096268013      -14.6412751355       45.4730266005  TIP3      4208            0.0000000000
     37539      4408  TIP3      H1            -16.2456199158      -14.9103165972       45.3619179910  TIP3      4208            0.0000000000
     37540      4408  TIP3      H2            -14.9340856942      -14.9394006555       44.6201597397  TIP3      4208            0.0000000000
     37541      4409  TIP3      OH2            -9.7865449005      -14.1463504299       44.2628643514  TIP3      4209            0.0000000000
     37542      4409  TIP3      H1            -10.1735819790      -13.3132329297       43.9133927114  TIP3      4209            0.0000000000
     37543      4409  TIP3      H2             -9.0942419557      -14.3144946013       43.6038550582  TIP3      4209            0.0000000000
     37544      4410  TIP3      OH2            -8.7698153984      -14.6732632772       47.1225293148  TIP3      4210            0.0000000000
     37545      4410  TIP3      H1             -9.0070021937      -14.0917803983       46.3741716441  TIP3      4210            0.0000000000
     37546      4410  TIP3      H2             -8.6370751081      -15.5062613410       46.6210939786  TIP3      4210            0.0000000000
     37547      4411  TIP3      OH2           -14.2706274338      -17.1201536866       39.1712650765  TIP3      4211            0.0000000000
     37548      4411  TIP3      H1            -14.7247717545      -17.5405761605       39.9297857003  TIP3      4211            0.0000000000
     37549      4411  TIP3      H2            -14.9800552967      -16.6879547365       38.6801331696  TIP3      4211            0.0000000000
     37550      4412  TIP3      OH2           -20.9892373859      -17.3731404065       46.2604084709  TIP3      4212            0.0000000000
     37551      4412  TIP3      H1            -20.3229236681      -17.4222738896       46.9777962842  TIP3      4212            0.0000000000
     37552      4412  TIP3      H2            -20.5386200978      -17.7978505518       45.5084159550  TIP3      4212            0.0000000000
     37553      4413  TIP3      OH2           -19.7165172899      -16.6940320123       41.6492309904  TIP3      4213            0.0000000000
     37554      4413  TIP3      H1            -19.2071805956      -16.0783200327       41.0904726113  TIP3      4213            0.0000000000
     37555      4413  TIP3      H2            -20.3983960170      -16.0736926705       41.9850269136  TIP3      4213            0.0000000000
     37556      4414  TIP3      OH2           -12.7421729100      -17.0450918915       46.5152810127  TIP3      4214            0.0000000000
     37557      4414  TIP3      H1            -13.6752878580      -17.0970939105       46.8004015632  TIP3      4214            0.0000000000
     37558      4414  TIP3      H2            -12.2494161329      -17.2648863347       47.3186298481  TIP3      4214            0.0000000000
     37559      4415  TIP3      OH2           -17.9179556185      -15.5374395949       45.3539896141  TIP3      4215            0.0000000000
     37560      4415  TIP3      H1            -18.8163794296      -15.3904347130       44.9931227787  TIP3      4215            0.0000000000
     37561      4415  TIP3      H2            -17.6569372446      -16.3864512361       44.9635776344  TIP3      4215            0.0000000000
     37562      4416  TIP3      OH2           -14.2983305859      -15.4973386737       43.0065669535  TIP3      4216            0.0000000000
     37563      4416  TIP3      H1            -13.3409925851      -15.3873574999       43.1627447589  TIP3      4216            0.0000000000
     37564      4416  TIP3      H2            -14.5336555895      -14.8159847573       42.3477797496  TIP3      4216            0.0000000000
     37565      4417  TIP3      OH2            -8.3379950606      -17.9110524701       49.5957033017  TIP3      4217            0.0000000000
     37566      4417  TIP3      H1             -8.9368503160      -17.8150719385       50.3545131701  TIP3      4217            0.0000000000
     37567      4417  TIP3      H2             -8.9533362390      -18.1338677314       48.8998322159  TIP3      4217            0.0000000000
     37568      4418  TIP3      OH2           -15.5890640459      -14.3216486954       40.5900136466  TIP3      4218            0.0000000000
     37569      4418  TIP3      H1            -16.1226319680      -14.7009414902       39.8706659562  TIP3      4218            0.0000000000
     37570      4418  TIP3      H2            -14.7692926698      -14.1132965216       40.1158313773  TIP3      4218            0.0000000000
     37571      4419  TIP3      OH2           -11.5073597765      -14.3829687329       48.3952643756  TIP3      4219            0.0000000000
     37572      4419  TIP3      H1            -10.8709716906      -14.8661587995       47.8413956974  TIP3      4219            0.0000000000
     37573      4419  TIP3      H2            -11.5655869639      -14.9317380688       49.1848194869  TIP3      4219            0.0000000000
     37574      4420  TIP3      OH2           -16.4457617179      -18.2008601942       44.8456387626  TIP3      4220            0.0000000000
     37575      4420  TIP3      H1            -16.7723283603      -19.1199213066       44.8156549677  TIP3      4220            0.0000000000
     37576      4420  TIP3      H2            -15.6694278008      -18.2664363456       44.2743550912  TIP3      4220            0.0000000000
     37577      4421  TIP3      OH2           -12.2397993214       -9.7923184974       42.5138217194  TIP3      4221            0.0000000000
     37578      4421  TIP3      H1            -13.0396545181      -10.2536470288       42.1755289106  TIP3      4221            0.0000000000
     37579      4421  TIP3      H2            -12.4677297672       -9.6625869571       43.4563715495  TIP3      4221            0.0000000000
     37580      4422  TIP3      OH2            -8.4107603514      -16.9765880155       40.6854697898  TIP3      4222            0.0000000000
     37581      4422  TIP3      H1             -9.3624225727      -16.8214167828       40.5516392692  TIP3      4222            0.0000000000
     37582      4422  TIP3      H2             -8.0700293482      -16.1258514803       41.0374096971  TIP3      4222            0.0000000000
     37583      4423  TIP3      OH2            -7.6728821897      -15.0514166548       42.3081474164  TIP3      4223            0.0000000000
     37584      4423  TIP3      H1             -6.7920215570      -15.1882776030       42.7165830934  TIP3      4223            0.0000000000
     37585      4423  TIP3      H2             -7.5637880851      -14.2294327400       41.8012416705  TIP3      4223            0.0000000000
     37586      4424  TIP3      OH2           -17.2263028880      -10.4467132843       48.2606422948  TIP3      4224            0.0000000000
     37587      4424  TIP3      H1            -16.4709741656      -10.4640853593       47.6480765287  TIP3      4224            0.0000000000
     37588      4424  TIP3      H2            -17.0495982944      -11.2551587448       48.7580455241  TIP3      4224            0.0000000000
     37589      4425  TIP3      OH2           -10.1460230786       -8.3202480910       41.5420101478  TIP3      4225            0.0000000000
     37590      4425  TIP3      H1            -10.4899448802       -7.4754946906       41.8997701008  TIP3      4225            0.0000000000
     37591      4425  TIP3      H2            -10.8751109345       -8.9375722840       41.7666401368  TIP3      4225            0.0000000000
     37592      4426  TIP3      OH2            -2.7678524685      -14.9254459934       42.0862933378  TIP3      4226            0.0000000000
     37593      4426  TIP3      H1             -3.3410655624      -15.2033561610       41.3483725104  TIP3      4226            0.0000000000
     37594      4426  TIP3      H2             -2.6933728326      -13.9732777102       41.8388053631  TIP3      4226            0.0000000000
     37595      4427  TIP3      OH2            -4.5194512686       -6.0862864960       42.4818594615  TIP3      4227            0.0000000000
     37596      4427  TIP3      H1             -4.8472313268       -6.9223525354       42.8322690741  TIP3      4227            0.0000000000
     37597      4427  TIP3      H2             -4.1624823044       -6.3071387481       41.6057365237  TIP3      4227            0.0000000000
     37598      4428  TIP3      OH2            -7.5930373562      -11.2018196097       48.8823138581  TIP3      4228            0.0000000000
     37599      4428  TIP3      H1             -8.3612780403      -11.4150111907       49.4506254358  TIP3      4228            0.0000000000
     37600      4428  TIP3      H2             -7.0756975967      -12.0328466005       48.8658174378  TIP3      4228            0.0000000000
     37601      4429  TIP3      OH2           -14.7537771599       -6.9345363443       45.7091734767  TIP3      4229            0.0000000000
     37602      4429  TIP3      H1            -14.2551644118       -6.1277531768       45.5004297773  TIP3      4229            0.0000000000
     37603      4429  TIP3      H2            -15.6299105947       -6.7114317949       45.3669088320  TIP3      4229            0.0000000000
     37604      4430  TIP3      OH2           -18.9891115678      -12.1016502479       40.2671125039  TIP3      4230            0.0000000000
     37605      4430  TIP3      H1            -18.4107952552      -11.4352884799       40.6761629092  TIP3      4230            0.0000000000
     37606      4430  TIP3      H2            -19.8794274070      -11.7879832072       40.5149883209  TIP3      4230            0.0000000000
     37607      4431  TIP3      OH2           -13.3497287496       -9.2636729401       45.1925917203  TIP3      4231            0.0000000000
     37608      4431  TIP3      H1            -13.6579027077       -8.3486860125       45.3177449866  TIP3      4231            0.0000000000
     37609      4431  TIP3      H2            -14.0632163450       -9.7600542021       45.6343243354  TIP3      4231            0.0000000000
     37610      4432  TIP3      OH2           -14.6549126433       -4.2691634361       44.7285793800  TIP3      4232            0.0000000000
     37611      4432  TIP3      H1            -15.6197732588       -4.1423668366       44.8689839861  TIP3      4232            0.0000000000
     37612      4432  TIP3      H2            -14.2971140416       -3.4412295270       45.1004452496  TIP3      4232            0.0000000000
     37613      4433  TIP3      OH2            -7.0258244521       -8.0130574500       40.3322708340  TIP3      4233            0.0000000000
     37614      4433  TIP3      H1             -6.7323147655       -8.4895954400       41.1349106647  TIP3      4233            0.0000000000
     37615      4433  TIP3      H2             -7.9794390678       -8.1995625914       40.4115531092  TIP3      4233            0.0000000000
     37616      4434  TIP3      OH2            -2.5770521707       -3.6916725916       40.5814078640  TIP3      4234            0.0000000000
     37617      4434  TIP3      H1             -1.8833393197       -3.0320364975       40.3752839249  TIP3      4234            0.0000000000
     37618      4434  TIP3      H2             -3.2813124874       -3.0689617527       40.8727305075  TIP3      4234            0.0000000000
     37619      4435  TIP3      OH2            -6.2540899158       -9.3851482832       42.5777351764  TIP3      4235            0.0000000000
     37620      4435  TIP3      H1             -6.4919452082      -10.1679090895       43.1250658856  TIP3      4235            0.0000000000
     37621      4435  TIP3      H2             -5.3009251811       -9.3406527707       42.7512054425  TIP3      4235            0.0000000000
     37622      4436  TIP3      OH2           -12.8992040053       -6.9430445817       38.8284181846  TIP3      4236            0.0000000000
     37623      4436  TIP3      H1            -12.8019474208       -7.7083923786       38.2367670363  TIP3      4236            0.0000000000
     37624      4436  TIP3      H2            -13.3437705266       -7.3755196751       39.5913207557  TIP3      4236            0.0000000000
     37625      4437  TIP3      OH2           -14.1315931754       -7.4176325237       41.2811176999  TIP3      4237            0.0000000000
     37626      4437  TIP3      H1            -13.8570112157       -7.9325028918       42.0495181448  TIP3      4237            0.0000000000
     37627      4437  TIP3      H2            -14.0365095382       -6.4917607740       41.6037190752  TIP3      4237            0.0000000000
     37628      4438  TIP3      OH2           -17.5869977143      -10.1721040887       41.7584595434  TIP3      4238            0.0000000000
     37629      4438  TIP3      H1            -18.2994225660       -9.7770402608       42.3014138452  TIP3      4238            0.0000000000
     37630      4438  TIP3      H2            -17.0803112196       -9.3916447434       41.4698771908  TIP3      4238            0.0000000000
     37631      4439  TIP3      OH2            -9.0155066218      -17.9188300467       43.1704713072  TIP3      4239            0.0000000000
     37632      4439  TIP3      H1             -8.7839212459      -17.4546505785       42.3437604194  TIP3      4239            0.0000000000
     37633      4439  TIP3      H2             -8.4386905450      -17.4729899450       43.8047561537  TIP3      4239            0.0000000000
     37634      4440  TIP3      OH2           -11.3237299686       -5.7559641738       41.9738766816  TIP3      4240            0.0000000000
     37635      4440  TIP3      H1            -12.1418715869       -5.2231015643       42.0478267928  TIP3      4240            0.0000000000
     37636      4440  TIP3      H2            -10.7843066330       -5.2041596095       41.3892683099  TIP3      4240            0.0000000000
     37637      4441  TIP3      OH2           -11.7794938572      -16.1657959604       43.9803859215  TIP3      4241            0.0000000000
     37638      4441  TIP3      H1            -11.0016441121      -15.5773731498       44.0381509927  TIP3      4241            0.0000000000
     37639      4441  TIP3      H2            -12.0513624042      -16.3006074739       44.9072036211  TIP3      4241            0.0000000000
     37640      4442  TIP3      OH2           -10.9302952114      -19.1013329765       44.8678489483  TIP3      4242            0.0000000000
     37641      4442  TIP3      H1            -11.2512709247      -18.4584936166       45.5274647830  TIP3      4242            0.0000000000
     37642      4442  TIP3      H2            -10.2348606660      -18.5546970233       44.4294950640  TIP3      4242            0.0000000000
     37643      4443  TIP3      OH2           -13.9193858234       -4.7211210723       42.0057147487  TIP3      4243            0.0000000000
     37644      4443  TIP3      H1            -13.8297851495       -3.9069137510       41.4540347436  TIP3      4243            0.0000000000
     37645      4443  TIP3      H2            -14.1930174906       -4.3552414465       42.8759194147  TIP3      4243            0.0000000000
     37646      4444  TIP3      OH2           -15.2764068087      -17.9994025826       41.5822984542  TIP3      4244            0.0000000000
     37647      4444  TIP3      H1            -15.3263215452      -17.1015956313       41.9679854017  TIP3      4244            0.0000000000
     37648      4444  TIP3      H2            -14.3682996537      -18.2443105303       41.8469660862  TIP3      4244            0.0000000000
     37649      4445  TIP3      OH2            -6.4761277008      -13.4281452095       47.9626525842  TIP3      4245            0.0000000000
     37650      4445  TIP3      H1             -7.2899380158      -13.9166638904       47.7566448146  TIP3      4245            0.0000000000
     37651      4445  TIP3      H2             -5.9786703053      -14.1164462563       48.4664641450  TIP3      4245            0.0000000000
     37652      4446  TIP3      OH2           -17.0431921688       -7.5618587253       40.6208043160  TIP3      4246            0.0000000000
     37653      4446  TIP3      H1            -16.3758726859       -6.9354898822       40.9383062061  TIP3      4246            0.0000000000
     37654      4446  TIP3      H2            -16.5172218135       -8.0265322007       39.9391192663  TIP3      4246            0.0000000000
     37655      4447  TIP3      OH2           -18.6993482540      -14.8844088942       39.7703824188  TIP3      4247            0.0000000000
     37656      4447  TIP3      H1            -18.6808226658      -13.9264388314       39.9743056756  TIP3      4247            0.0000000000
     37657      4447  TIP3      H2            -19.5916297732      -15.0580003132       39.4608190352  TIP3      4247            0.0000000000
     37658      4448  TIP3      OH2            -5.0825591738       -3.9814241775       49.6028148128  TIP3      4248            0.0000000000
     37659      4448  TIP3      H1             -5.2597499512       -3.3329252008       48.8823249852  TIP3      4248            0.0000000000
     37660      4448  TIP3      H2             -4.1387412537       -3.9815249450       49.7572968432  TIP3      4248            0.0000000000
     37661      4449  TIP3      OH2           -17.8894937516      -20.1148735112       48.4500594099  TIP3      4249            0.0000000000
     37662      4449  TIP3      H1            -18.1033648169      -20.0870815682       47.4977254817  TIP3      4249            0.0000000000
     37663      4449  TIP3      H2            -18.2637890756      -20.9570585295       48.7441172437  TIP3      4249            0.0000000000
     37664      4450  TIP3      OH2           -18.9295350927       -6.1797617284       44.6580489933  TIP3      4250            0.0000000000
     37665      4450  TIP3      H1            -19.7802013330       -5.7247049976       44.5974391161  TIP3      4250            0.0000000000
     37666      4450  TIP3      H2            -18.4490458734       -5.7171103709       43.9573975392  TIP3      4250            0.0000000000
     37667      4451  TIP3      OH2           -10.9056811210       -5.0944842138       38.9516649294  TIP3      4251            0.0000000000
     37668      4451  TIP3      H1            -11.5988597930       -5.7538907220       39.1774760359  TIP3      4251            0.0000000000
     37669      4451  TIP3      H2            -10.1878362558       -5.6936750952       38.7037370646  TIP3      4251            0.0000000000
     37670      4452  TIP3      OH2            -6.3484351834       -5.3505778674       39.1378661748  TIP3      4252            0.0000000000
     37671      4452  TIP3      H1             -6.0523501286       -6.1265541133       39.6411141301  TIP3      4252            0.0000000000
     37672      4452  TIP3      H2             -5.5861069316       -5.1253965294       38.5853271100  TIP3      4252            0.0000000000
     37673      4453  TIP3      OH2           -15.4599475022       -9.4071832648       38.9541174837  TIP3      4253            0.0000000000
     37674      4453  TIP3      H1            -15.3248344223      -10.1710603852       39.5352792555  TIP3      4253            0.0000000000
     37675      4453  TIP3      H2            -14.7114721526       -9.5284391752       38.3374477708  TIP3      4253            0.0000000000
     37676      4454  TIP3      OH2           -10.0303559479       -8.3002464387       38.7334727775  TIP3      4254            0.0000000000
     37677      4454  TIP3      H1            -10.3014537617       -8.2201625178       39.6616595960  TIP3      4254            0.0000000000
     37678      4454  TIP3      H2            -10.2192966471       -9.2577943135       38.5881857030  TIP3      4254            0.0000000000
     37679      4455  TIP3      OH2           -14.2630419469      -11.3896162613       41.3801885983  TIP3      4255            0.0000000000
     37680      4455  TIP3      H1            -14.7626689669      -11.9289873347       42.0095860479  TIP3      4255            0.0000000000
     37681      4455  TIP3      H2            -13.9591371435      -12.0641743600       40.7292868536  TIP3      4255            0.0000000000
     37682      4456  TIP3      OH2           -13.1812007144      -13.1652668254       39.5711780276  TIP3      4256            0.0000000000
     37683      4456  TIP3      H1            -13.3305743155      -13.2590826587       38.6108320005  TIP3      4256            0.0000000000
     37684      4456  TIP3      H2            -12.2055009765      -13.1174140015       39.6472150340  TIP3      4256            0.0000000000
     37685      4457  TIP3      OH2            -3.8540915529      -10.8516645189       38.9930706025  TIP3      4257            0.0000000000
     37686      4457  TIP3      H1             -4.0438514439      -11.2299058277       38.1215759119  TIP3      4257            0.0000000000
     37687      4457  TIP3      H2             -3.7650539502       -9.8875576585       38.8078982889  TIP3      4257            0.0000000000
     37688      4458  TIP3      OH2           -13.3517384345       -2.4650716481       40.6624765707  TIP3      4258            0.0000000000
     37689      4458  TIP3      H1            -12.3846340781       -2.3836731683       40.7300679700  TIP3      4258            0.0000000000
     37690      4458  TIP3      H2            -13.4997318812       -1.8670426177       39.9216121282  TIP3      4258            0.0000000000
     37691      4459  TIP3      OH2           -19.8002510117       -7.8965177810       40.1317360526  TIP3      4259            0.0000000000
     37692      4459  TIP3      H1            -18.8329843713       -7.8011730215       40.3105572611  TIP3      4259            0.0000000000
     37693      4459  TIP3      H2            -19.7495043484       -8.5384540367       39.3839531716  TIP3      4259            0.0000000000
     37694      4460  TIP3      OH2           -21.0172370757       -2.5017868619       45.0845809637  TIP3      4260            0.0000000000
     37695      4460  TIP3      H1            -21.7325023488       -3.0046653641       44.6325871189  TIP3      4260            0.0000000000
     37696      4460  TIP3      H2            -20.7377859119       -3.1533035233       45.7601072747  TIP3      4260            0.0000000000
     37697      4461  TIP3      OH2           -20.2558340483       -4.3612487681       46.8926314300  TIP3      4261            0.0000000000
     37698      4461  TIP3      H1            -20.5215011797       -5.2631386298       47.1302426671  TIP3      4261            0.0000000000
     37699      4461  TIP3      H2            -19.9171865880       -4.0491877812       47.7719815752  TIP3      4261            0.0000000000
     37700      4462  TIP3      OH2            -3.3217454428       -9.9257012726       42.9431210757  TIP3      4262            0.0000000000
     37701      4462  TIP3      H1             -2.4538856674       -9.5409031627       43.1347516895  TIP3      4262            0.0000000000
     37702      4462  TIP3      H2             -3.3374434445      -10.6512580431       43.6047390912  TIP3      4262            0.0000000000
     37703      4463  TIP3      OH2            -2.9747095146      -11.8522768333       44.8170894757  TIP3      4263            0.0000000000
     37704      4463  TIP3      H1             -3.7129308964      -12.3519568112       45.2272260304  TIP3      4263            0.0000000000
     37705      4463  TIP3      H2             -2.3589791686      -11.7215888734       45.5728840215  TIP3      4263            0.0000000000
     37706      4464  TIP3      OH2            -3.1030537332       -8.9046877556       49.6931969637  TIP3      4264            0.0000000000
     37707      4464  TIP3      H1             -2.3078715899       -9.4197425748       49.4617458798  TIP3      4264            0.0000000000
     37708      4464  TIP3      H2             -2.9129252971       -7.9649094138       49.5688080919  TIP3      4264            0.0000000000
     37709      4465  TIP3      OH2            -2.6607942173      -12.0315100411       41.2281436155  TIP3      4265            0.0000000000
     37710      4465  TIP3      H1             -3.2278133458      -11.6911651661       40.5043957930  TIP3      4265            0.0000000000
     37711      4465  TIP3      H2             -2.7616332081      -11.3174512846       41.8849010105  TIP3      4265            0.0000000000
     37712      4466  TIP3      OH2            -4.2823499844      -14.8072673584       39.7367400121  TIP3      4266            0.0000000000
     37713      4466  TIP3      H1             -4.2093694352      -14.1396599926       39.0445611232  TIP3      4266            0.0000000000
     37714      4466  TIP3      H2             -4.4722800225      -15.6284058564       39.2438318254  TIP3      4266            0.0000000000
     37715      4467  TIP3      OH2            -5.1381503780      -13.3910547848       45.4337648787  TIP3      4267            0.0000000000
     37716      4467  TIP3      H1             -5.2833830719      -14.3479871826       45.3815810462  TIP3      4267            0.0000000000
     37717      4467  TIP3      H2             -5.4856370976      -13.1892635431       46.3227655778  TIP3      4267            0.0000000000
     37718      4468  TIP3      OH2           -20.1531444239      -11.2218883239       49.3404087186  TIP3      4268            0.0000000000
     37719      4468  TIP3      H1            -19.9168793955      -11.3889648874       48.4081058022  TIP3      4268            0.0000000000
     37720      4468  TIP3      H2            -19.3377154885      -11.4535393795       49.8194877548  TIP3      4268            0.0000000000
     37721      4469  TIP3      OH2            -5.0356928459      -17.3275487743       38.8765721502  TIP3      4269            0.0000000000
     37722      4469  TIP3      H1             -4.4492018664      -17.7687284377       39.5199534036  TIP3      4269            0.0000000000
     37723      4469  TIP3      H2             -5.9014547957      -17.7449256978       39.0291795031  TIP3      4269            0.0000000000
     37724      4470  TIP3      OH2            -5.4959174350      -15.8031295717       43.8178617001  TIP3      4270            0.0000000000
     37725      4470  TIP3      H1             -5.1779680773      -16.7212316204       43.9840093718  TIP3      4270            0.0000000000
     37726      4470  TIP3      H2             -4.6710466581      -15.3933675664       43.5219339331  TIP3      4270            0.0000000000
     37727      4471  TIP3      OH2            -4.8682152090      -15.1385102852       48.8679428221  TIP3      4271            0.0000000000
     37728      4471  TIP3      H1             -3.9075053749      -15.1034724252       49.0675115307  TIP3      4271            0.0000000000
     37729      4471  TIP3      H2             -5.2353659738      -15.2073601483       49.7788716722  TIP3      4271            0.0000000000
     37730      4472  TIP3      OH2            -4.8010713261      -18.5147370938       43.9111981914  TIP3      4272            0.0000000000
     37731      4472  TIP3      H1             -4.5896663494      -18.9449884958       44.7681132954  TIP3      4272            0.0000000000
     37732      4472  TIP3      H2             -5.3997088180      -19.1523244514       43.4745667685  TIP3      4272            0.0000000000
     37733      4473  TIP3      OH2           -19.3432664296      -17.6950492028       48.4645182879  TIP3      4273            0.0000000000
     37734      4473  TIP3      H1            -18.8922634405      -18.5308589904       48.7087133713  TIP3      4273            0.0000000000
     37735      4473  TIP3      H2            -18.7763835868      -17.0296184961       48.8913057627  TIP3      4273            0.0000000000
     37736      4474  TIP3      OH2           -21.0432853166      -14.7293605714       49.5173842082  TIP3      4274            0.0000000000
     37737      4474  TIP3      H1            -20.5080442920      -14.9619587902       48.7270668123  TIP3      4274            0.0000000000
     37738      4474  TIP3      H2            -20.5999073408      -13.8939051139       49.7455400514  TIP3      4274            0.0000000000
     37739      4475  TIP3      OH2            -2.9844617008      -18.4771292590       40.4641461290  TIP3      4275            0.0000000000
     37740      4475  TIP3      H1             -2.5734768768      -19.1893256177       39.9270259301  TIP3      4275            0.0000000000
     37741      4475  TIP3      H2             -2.2781036658      -17.8150989610       40.5120489555  TIP3      4275            0.0000000000
     37742      4476  TIP3      OH2           -20.6652541848      -18.4252662578       43.5892208840  TIP3      4276            0.0000000000
     37743      4476  TIP3      H1            -21.6091459678      -18.2687488966       43.4236976888  TIP3      4276            0.0000000000
     37744      4476  TIP3      H2            -20.2484971821      -17.9506478771       42.8512555170  TIP3      4276            0.0000000000
     37745      4477  TIP3      OH2            -5.9356539787       -3.5023556373       45.5296179752  TIP3      4277            0.0000000000
     37746      4477  TIP3      H1             -5.2548638747       -3.7920257617       44.8908256537  TIP3      4277            0.0000000000
     37747      4477  TIP3      H2             -5.4194532255       -2.9764941320       46.1616116390  TIP3      4277            0.0000000000
     37748      4478  TIP3      OH2           -18.9068934972       -3.8546753267       48.9880771479  TIP3      4278            0.0000000000
     37749      4478  TIP3      H1            -18.8141530348       -3.9781155601       49.9421429241  TIP3      4278            0.0000000000
     37750      4478  TIP3      H2            -17.9719084771       -4.0180140757       48.7532195484  TIP3      4278            0.0000000000
     37751      4479  TIP3      OH2           -16.6495254564       -4.9778329346       47.9126360014  TIP3      4279            0.0000000000
     37752      4479  TIP3      H1            -16.7777982446       -5.9289448262       48.0873799495  TIP3      4279            0.0000000000
     37753      4479  TIP3      H2            -15.7836556268       -4.8479024201       48.3483661648  TIP3      4279            0.0000000000
     37754      4480  TIP3      OH2           -14.0916533257       -4.4991560144       48.7596311636  TIP3      4280            0.0000000000
     37755      4480  TIP3      H1            -13.8643258814       -5.4063993684       48.4944702214  TIP3      4280            0.0000000000
     37756      4480  TIP3      H2            -14.0198860212       -4.5741873677       49.7166282403  TIP3      4280            0.0000000000
     37757      4481  TIP3      OH2           -10.5633129110      -18.7976972981       47.9009927077  TIP3      4281            0.0000000000
     37758      4481  TIP3      H1            -11.2080494333      -19.4505219353       48.2365363952  TIP3      4281            0.0000000000
     37759      4481  TIP3      H2             -9.9934040372      -19.3805681486       47.3830671039  TIP3      4281            0.0000000000
     37760      4482  TIP3      OH2            -5.4111196587      -20.7559074121       47.9875180251  TIP3      4282            0.0000000000
     37761      4482  TIP3      H1             -4.8248012249      -20.1669195207       47.4643230997  TIP3      4282            0.0000000000
     37762      4482  TIP3      H2             -6.3078923029      -20.4124447114       47.7928724407  TIP3      4282            0.0000000000
     37763      4483  TIP3      OH2            -3.7383053041      -19.5484078707       46.2646245349  TIP3      4283            0.0000000000
     37764      4483  TIP3      H1             -3.0649551240      -20.1252520264       45.8372672546  TIP3      4283            0.0000000000
     37765      4483  TIP3      H2             -3.2429672620      -18.7046845298       46.3532867085  TIP3      4283            0.0000000000
     37766      4484  TIP3      OH2           -18.1904879736      -20.2252610782       45.7022266592  TIP3      4284            0.0000000000
     37767      4484  TIP3      H1            -19.0017659906      -20.4373808350       45.2089066719  TIP3      4284            0.0000000000
     37768      4484  TIP3      H2            -17.7340291637      -21.0869332170       45.7199097835  TIP3      4284            0.0000000000
     37769      4485  TIP3      OH2           -19.4220041392      -20.4750645259       41.4883109307  TIP3      4285            0.0000000000
     37770      4485  TIP3      H1            -18.9455812209      -19.8055324985       40.9614850724  TIP3      4285            0.0000000000
     37771      4485  TIP3      H2            -19.9957544994      -19.9048504274       42.0293755977  TIP3      4285            0.0000000000
     37772      4486  TIP3      OH2           -13.7198530730      -20.3316768914       45.5590583031  TIP3      4286            0.0000000000
     37773      4486  TIP3      H1            -12.8329571466      -19.9418212788       45.4718392959  TIP3      4286            0.0000000000
     37774      4486  TIP3      H2            -13.7531153779      -20.5303987256       46.4954087301  TIP3      4286            0.0000000000
     37775      4487  TIP3      OH2            -7.9958378897      -20.2700600777       47.1546860770  TIP3      4287            0.0000000000
     37776      4487  TIP3      H1             -8.0541228561      -20.1626125750       46.2041446302  TIP3      4287            0.0000000000
     37777      4487  TIP3      H2             -8.4003603402      -21.1556381077       47.3123368519  TIP3      4287            0.0000000000
     37778      4488  TIP3      OH2            -6.7416791653      -20.2559385706       42.8636734767  TIP3      4288            0.0000000000
     37779      4488  TIP3      H1             -7.4909073883      -19.6618381826       42.7062422978  TIP3      4288            0.0000000000
     37780      4488  TIP3      H2             -7.1810607806      -21.1074583285       43.0991483163  TIP3      4288            0.0000000000
     37781      4489  TIP3      OH2           -19.5123853688       -4.5279540196       42.5217252687  TIP3      4289            0.0000000000
     37782      4489  TIP3      H1            -20.1688987435       -4.5419494427       41.8012328560  TIP3      4289            0.0000000000
     37783      4489  TIP3      H2            -19.5147588510       -3.5725393595       42.6916340678  TIP3      4289            0.0000000000
     37784      4490  TIP3      OH2           -17.6015476500      -18.5586897054       39.9980558643  TIP3      4290            0.0000000000
     37785      4490  TIP3      H1            -17.0490149934      -19.1335892374       39.4517637979  TIP3      4290            0.0000000000
     37786      4490  TIP3      H2            -16.9431688592      -18.2216821902       40.6346999953  TIP3      4290            0.0000000000
     37787      4491  TIP3      OH2           -12.5729042270      -18.2911573513       42.4045747114  TIP3      4291            0.0000000000
     37788      4491  TIP3      H1            -12.3166684182      -18.8668920832       43.1437201768  TIP3      4291            0.0000000000
     37789      4491  TIP3      H2            -12.4988123166      -17.4231832922       42.8603412494  TIP3      4291            0.0000000000
     37790      4492  TIP3      OH2           -10.6370165077       -3.2156960240       40.8544915313  TIP3      4292            0.0000000000
     37791      4492  TIP3      H1             -9.7186525474       -2.9905729132       40.6306525071  TIP3      4292            0.0000000000
     37792      4492  TIP3      H2            -10.8571563115       -3.7347357709       40.0532892654  TIP3      4292            0.0000000000
     37793      4493  TIP3      OH2            -3.9393006844       -3.7099931381       43.5689676330  TIP3      4293            0.0000000000
     37794      4493  TIP3      H1             -4.1358238528       -4.4937652290       43.0015798254  TIP3      4293            0.0000000000
     37795      4493  TIP3      H2             -3.9964543825       -2.9699743139       42.9273865482  TIP3      4293            0.0000000000
     37796      4494  TIP3      OH2           -17.7188090996       -3.5376729847       39.4531979221  TIP3      4294            0.0000000000
     37797      4494  TIP3      H1            -17.9747803433       -3.2820383781       40.3524139080  TIP3      4294            0.0000000000
     37798      4494  TIP3      H2            -16.9366096882       -4.1021318706       39.6118197860  TIP3      4294            0.0000000000
     37799      4495  TIP3      OH2             9.7453762747      -11.0912701631       45.6324366180  TIP3      4295            0.0000000000
     37800      4495  TIP3      H1              9.7438259830      -10.1094540695       45.5994747246  TIP3      4295            0.0000000000
     37801      4495  TIP3      H2              9.0202862077      -11.3192786895       45.0266532679  TIP3      4295            0.0000000000
     37802      4496  TIP3      OH2             8.6407517980      -11.8356016701       49.1405142508  TIP3      4296            0.0000000000
     37803      4496  TIP3      H1              8.5450720652      -12.4956488583       49.8526243680  TIP3      4296            0.0000000000
     37804      4496  TIP3      H2              8.3136267787      -12.2997052065       48.3540377856  TIP3      4296            0.0000000000
     37805      4497  TIP3      OH2            12.2034250472       -8.9190362597       47.3385152151  TIP3      4297            0.0000000000
     37806      4497  TIP3      H1             11.8631914100       -9.6399132119       47.8944816831  TIP3      4297            0.0000000000
     37807      4497  TIP3      H2             12.3426846494       -8.2340456015       48.0481631510  TIP3      4297            0.0000000000
     37808      4498  TIP3      OH2             1.8778464675       -7.6430116485       49.0566520546  TIP3      4298            0.0000000000
     37809      4498  TIP3      H1              1.5722264852       -8.5518909663       48.8665044552  TIP3      4298            0.0000000000
     37810      4498  TIP3      H2              2.8210104291       -7.8682063183       49.2187317028  TIP3      4298            0.0000000000
     37811      4499  TIP3      OH2            -1.4741946720      -14.1630137437       44.6778128389  TIP3      4299            0.0000000000
     37812      4499  TIP3      H1             -1.8998503724      -13.2880416599       44.6011677379  TIP3      4299            0.0000000000
     37813      4499  TIP3      H2             -2.0420588617      -14.6970869379       44.1030322717  TIP3      4299            0.0000000000
     37814      4500  TIP3      OH2            -0.7841124832      -11.9410764682       46.7739684636  TIP3      4300            0.0000000000
     37815      4500  TIP3      H1             -0.5128485791      -12.7338872808       47.2669087391  TIP3      4300            0.0000000000
     37816      4500  TIP3      H2             -0.0509752376      -11.8265548731       46.1564435490  TIP3      4300            0.0000000000
     37817      4501  TIP3      OH2             9.4060795287       -3.7201111836       47.6817100759  TIP3      4301            0.0000000000
     37818      4501  TIP3      H1             10.0590554523       -4.3923872535       47.3644488717  TIP3      4301            0.0000000000
     37819      4501  TIP3      H2              9.2187669158       -4.0488213964       48.5570913773  TIP3      4301            0.0000000000
     37820      4502  TIP3      OH2             7.0283054366       -9.3810938011       49.5804451251  TIP3      4302            0.0000000000
     37821      4502  TIP3      H1              7.3565297369      -10.0534938684       48.9629088709  TIP3      4302            0.0000000000
     37822      4502  TIP3      H2              7.7932401695       -9.3001892030       50.1454913662  TIP3      4302            0.0000000000
     37823      4503  TIP3      OH2            10.1738226758      -14.9596916825       49.9064816601  TIP3      4303            0.0000000000
     37824      4503  TIP3      H1             10.3044427806      -15.9219109044       49.9104287218  TIP3      4303            0.0000000000
     37825      4503  TIP3      H2             10.0682563785      -14.8129030992       48.9404358550  TIP3      4303            0.0000000000
     37826      4504  TIP3      OH2             3.2758586330      -16.9054915448       47.1213036152  TIP3      4304            0.0000000000
     37827      4504  TIP3      H1              3.3734709357      -16.0547112264       46.6555450697  TIP3      4304            0.0000000000
     37828      4504  TIP3      H2              2.8563245447      -17.4532042195       46.4241390634  TIP3      4304            0.0000000000
     37829      4505  TIP3      OH2            10.9831385321      -16.7850207237       45.4774677504  TIP3      4305            0.0000000000
     37830      4505  TIP3      H1             11.6207920096      -17.1141516255       46.1573156950  TIP3      4305            0.0000000000
     37831      4505  TIP3      H2             11.5725128391      -16.2144166467       44.9649139035  TIP3      4305            0.0000000000
     37832      4506  TIP3      OH2            -0.1257150342      -14.5091076181       47.8598812689  TIP3      4306            0.0000000000
     37833      4506  TIP3      H1              0.5558775464      -15.0329168303       48.3221892828  TIP3      4306            0.0000000000
     37834      4506  TIP3      H2              0.0150492107      -14.7873004598       46.9351548501  TIP3      4306            0.0000000000
     37835      4507  TIP3      OH2             5.0504613560      -12.9309594479       47.1590348210  TIP3      4307            0.0000000000
     37836      4507  TIP3      H1              5.7223221796      -13.5132606426       47.5626316394  TIP3      4307            0.0000000000
     37837      4507  TIP3      H2              4.5262109815      -13.5755801109       46.6433903292  TIP3      4307            0.0000000000
     37838      4508  TIP3      OH2             9.4411873841       -8.4961259993       44.7358937387  TIP3      4308            0.0000000000
     37839      4508  TIP3      H1              9.2026253760       -8.7735501483       43.8434616397  TIP3      4308            0.0000000000
     37840      4508  TIP3      H2              9.1554410421       -7.5577203250       44.7779695658  TIP3      4308            0.0000000000
     37841      4509  TIP3      OH2            12.7496245995      -17.4544128875       47.4650842809  TIP3      4309            0.0000000000
     37842      4509  TIP3      H1             12.5794801965      -18.2023543600       48.0527661048  TIP3      4309            0.0000000000
     37843      4509  TIP3      H2             13.4365441464      -17.0134701474       48.0014187077  TIP3      4309            0.0000000000
     37844      4510  TIP3      OH2             1.7704018034      -16.1514902767       49.1566334613  TIP3      4310            0.0000000000
     37845      4510  TIP3      H1              2.2938397290      -15.4062378470       49.4553832243  TIP3      4310            0.0000000000
     37846      4510  TIP3      H2              2.2685187994      -16.5170153409       48.3975294286  TIP3      4310            0.0000000000
     37847      4511  TIP3      OH2            -0.7877699050       -8.7210154020       43.0180990988  TIP3      4311            0.0000000000
     37848      4511  TIP3      H1             -1.0399374185       -8.3805897610       42.1415018727  TIP3      4311            0.0000000000
     37849      4511  TIP3      H2             -0.7095626414       -7.8942700611       43.5351808792  TIP3      4311            0.0000000000
     37850      4512  TIP3      OH2            12.8714527341       -7.3558923143       49.3020772837  TIP3      4312            0.0000000000
     37851      4512  TIP3      H1             12.0707996082       -7.2009010442       49.8403637786  TIP3      4312            0.0000000000
     37852      4512  TIP3      H2             13.2361810047       -6.4772313643       49.4623359987  TIP3      4312            0.0000000000
     37853      4513  TIP3      OH2             6.1392186311      -20.6158966475       48.6332312073  TIP3      4313            0.0000000000
     37854      4513  TIP3      H1              6.0617754525      -21.5860790976       48.5344840874  TIP3      4313            0.0000000000
     37855      4513  TIP3      H2              5.2475000959      -20.3208149519       48.8681110172  TIP3      4313            0.0000000000
     37856      4514  TIP3      OH2            11.0484463195       -5.2582308804       46.3511513226  TIP3      4314            0.0000000000
     37857      4514  TIP3      H1             11.4968009068       -5.9786976635       45.8556881686  TIP3      4314            0.0000000000
     37858      4514  TIP3      H2             11.5027868462       -4.4658145156       45.9944722950  TIP3      4314            0.0000000000
     37859      4515  TIP3      OH2            12.2872665216       -7.3098643832       44.9122469426  TIP3      4315            0.0000000000
     37860      4515  TIP3      H1             11.9938257458       -8.0190762854       44.3151269281  TIP3      4315            0.0000000000
     37861      4515  TIP3      H2             12.3262717644       -7.8119684433       45.7483351882  TIP3      4315            0.0000000000
     37862      4516  TIP3      OH2             8.4009300958      -11.8531630908       43.1458266992  TIP3      4316            0.0000000000
     37863      4516  TIP3      H1              7.7092552754      -11.2743689256       42.7767832559  TIP3      4316            0.0000000000
     37864      4516  TIP3      H2              9.1132601849      -11.7587033745       42.4804145367  TIP3      4316            0.0000000000
     37865      4517  TIP3      OH2             8.4877362005      -13.2817490364       40.1492976720  TIP3      4317            0.0000000000
     37866      4517  TIP3      H1              9.1914604706      -13.3007936450       40.8152264599  TIP3      4317            0.0000000000
     37867      4517  TIP3      H2              8.7926605728      -14.0017920982       39.5823325353  TIP3      4317            0.0000000000
     37868      4518  TIP3      OH2            11.8600288413      -11.6397605307       44.0511928086  TIP3      4318            0.0000000000
     37869      4518  TIP3      H1             11.1082015883      -11.4008282812       44.6488121173  TIP3      4318            0.0000000000
     37870      4518  TIP3      H2             12.3212793588      -12.3211457395       44.5672174001  TIP3      4318            0.0000000000
     37871      4519  TIP3      OH2             3.4496012787      -10.9893118052       45.9828645902  TIP3      4319            0.0000000000
     37872      4519  TIP3      H1              3.1282878935      -11.3679977081       45.1320064694  TIP3      4319            0.0000000000
     37873      4519  TIP3      H2              4.0937356431      -11.6681361499       46.2737993487  TIP3      4319            0.0000000000
     37874      4520  TIP3      OH2             4.8612686038       -7.5315190168       48.6201974121  TIP3      4320            0.0000000000
     37875      4520  TIP3      H1              4.7844461497       -8.1074044470       47.8456315831  TIP3      4320            0.0000000000
     37876      4520  TIP3      H2              5.5709770509       -7.9644569060       49.1254224436  TIP3      4320            0.0000000000
     37877      4521  TIP3      OH2             3.6839852802      -12.1564882908       49.4821752229  TIP3      4321            0.0000000000
     37878      4521  TIP3      H1              4.3257773503      -12.0819808738       48.7613647578  TIP3      4321            0.0000000000
     37879      4521  TIP3      H2              4.1345132579      -11.6898914602       50.2050432778  TIP3      4321            0.0000000000
     37880      4522  TIP3      OH2            10.7342860849      -12.4355178212       41.7292711676  TIP3      4322            0.0000000000
     37881      4522  TIP3      H1             11.2882550283      -12.2576547699       42.5312272826  TIP3      4322            0.0000000000
     37882      4522  TIP3      H2             11.1845808537      -11.9430434430       41.0061673861  TIP3      4322            0.0000000000
     37883      4523  TIP3      OH2             8.4398808106       -5.7317870539       45.1825025223  TIP3      4323            0.0000000000
     37884      4523  TIP3      H1              8.8738851477       -5.4202451849       45.9859102224  TIP3      4323            0.0000000000
     37885      4523  TIP3      H2              7.8807467548       -4.9791146140       44.9481358213  TIP3      4323            0.0000000000
     37886      4524  TIP3      OH2            14.4568629401      -20.7100083519       41.6334830223  TIP3      4324            0.0000000000
     37887      4524  TIP3      H1             13.5092329014      -20.5957019909       41.8719955762  TIP3      4324            0.0000000000
     37888      4524  TIP3      H2             14.6574273073      -19.8684680774       41.1887592361  TIP3      4324            0.0000000000
     37889      4525  TIP3      OH2             2.4199256578      -11.9609040220       43.6221708560  TIP3      4325            0.0000000000
     37890      4525  TIP3      H1              2.1468805608      -11.1809797980       43.0929596633  TIP3      4325            0.0000000000
     37891      4525  TIP3      H2              1.7824402324      -12.6304888158       43.3599955107  TIP3      4325            0.0000000000
     37892      4526  TIP3      OH2            15.5738088878       -6.3630521366       39.9878434660  TIP3      4326            0.0000000000
     37893      4526  TIP3      H1             15.7358635501       -5.4174501854       40.1501323099  TIP3      4326            0.0000000000
     37894      4526  TIP3      H2             16.4976226258       -6.6717197156       39.9790815365  TIP3      4326            0.0000000000
     37895      4527  TIP3      OH2            -1.6449355282       -6.6191920866       49.0719698849  TIP3      4327            0.0000000000
     37896      4527  TIP3      H1             -0.7435910517       -6.9068331853       49.2623125337  TIP3      4327            0.0000000000
     37897      4527  TIP3      H2             -1.8240310721       -5.9536983916       49.7409020850  TIP3      4327            0.0000000000
     37898      4528  TIP3      OH2             7.9135673961       -2.8072379099       43.6062638899  TIP3      4328            0.0000000000
     37899      4528  TIP3      H1              7.8268548007       -2.8951946654       42.6470525376  TIP3      4328            0.0000000000
     37900      4528  TIP3      H2              7.9372255389       -1.8515918507       43.7900278558  TIP3      4328            0.0000000000
     37901      4529  TIP3      OH2             1.5791764276       -3.9458849342       45.4113559698  TIP3      4329            0.0000000000
     37902      4529  TIP3      H1              1.7195519635       -4.3441058277       46.2981161519  TIP3      4329            0.0000000000
     37903      4529  TIP3      H2              0.7150750355       -4.3347148009       45.1956969857  TIP3      4329            0.0000000000
     37904      4530  TIP3      OH2            10.9534494927       -3.5831203015       40.5935376944  TIP3      4330            0.0000000000
     37905      4530  TIP3      H1             11.4263475796       -4.3339519450       40.1602644947  TIP3      4330            0.0000000000
     37906      4530  TIP3      H2             11.0127306488       -3.8435128348       41.5396344400  TIP3      4330            0.0000000000
     37907      4531  TIP3      OH2            10.6784575479       -3.6641460986       43.3699933337  TIP3      4331            0.0000000000
     37908      4531  TIP3      H1              9.7216315342       -3.5905953095       43.5490121134  TIP3      4331            0.0000000000
     37909      4531  TIP3      H2             10.9180774183       -4.4006226037       43.9534184656  TIP3      4331            0.0000000000
     37910      4532  TIP3      OH2             3.3703961986      -19.7796537530       49.5449161745  TIP3      4332            0.0000000000
     37911      4532  TIP3      H1              2.6284569962      -19.8098054321       48.8816406658  TIP3      4332            0.0000000000
     37912      4532  TIP3      H2              3.4421395689      -18.8364405360       49.7577910335  TIP3      4332            0.0000000000
     37913      4533  TIP3      OH2            12.1783822906      -11.4047527694       39.5430962620  TIP3      4333            0.0000000000
     37914      4533  TIP3      H1             12.1574917231      -11.5992929186       38.5774876619  TIP3      4333            0.0000000000
     37915      4533  TIP3      H2             13.0391822029      -10.9641902085       39.5949837201  TIP3      4333            0.0000000000
     37916      4534  TIP3      OH2             7.7748242939      -17.4848217132       40.0533988057  TIP3      4334            0.0000000000
     37917      4534  TIP3      H1              7.4604827087      -17.5490601539       40.9739229944  TIP3      4334            0.0000000000
     37918      4534  TIP3      H2              7.4668762002      -18.3620270249       39.7467322228  TIP3      4334            0.0000000000
     37919      4535  TIP3      OH2             3.5465798118      -14.6437831795       45.4746604325  TIP3      4335            0.0000000000
     37920      4535  TIP3      H1              2.6099456783      -14.9072733186       45.3570638347  TIP3      4335            0.0000000000
     37921      4535  TIP3      H2              3.9221708316      -14.9383974487       44.6204513941  TIP3      4335            0.0000000000
     37922      4536  TIP3      OH2             9.0704107011      -14.1434786674       44.2645401013  TIP3      4336            0.0000000000
     37923      4536  TIP3      H1              8.6762146775      -13.3181687822       43.9021481622  TIP3      4336            0.0000000000
     37924      4536  TIP3      H2              9.7621900505      -14.3151769421       43.6048390866  TIP3      4336            0.0000000000
     37925      4537  TIP3      OH2            10.0880011419      -14.6731798839       47.1255836707  TIP3      4337            0.0000000000
     37926      4537  TIP3      H1              9.8494017576      -14.0920475736       46.3761589151  TIP3      4337            0.0000000000
     37927      4537  TIP3      H2             10.2195447927      -15.5059741446       46.6232325091  TIP3      4337            0.0000000000
     37928      4538  TIP3      OH2             4.5850208145      -17.1202283706       39.1714924526  TIP3      4338            0.0000000000
     37929      4538  TIP3      H1              4.1305917107      -17.5410440030       39.9294677479  TIP3      4338            0.0000000000
     37930      4538  TIP3      H2              3.8757389975      -16.6878360268       38.6803027453  TIP3      4338            0.0000000000
     37931      4539  TIP3      OH2            -2.1369489432      -17.3719044474       46.2573690698  TIP3      4339            0.0000000000
     37932      4539  TIP3      H1             -1.4736613261      -17.4189493753       46.9764377077  TIP3      4339            0.0000000000
     37933      4539  TIP3      H2             -1.6835212476      -17.7980046908       45.5076143976  TIP3      4339            0.0000000000
     37934      4540  TIP3      OH2            -0.8635971245      -16.6898241108       41.6496664662  TIP3      4340            0.0000000000
     37935      4540  TIP3      H1             -0.3495287961      -16.0793278188       41.0898271714  TIP3      4340            0.0000000000
     37936      4540  TIP3      H2             -1.5488486502      -16.0655784993       41.9717646763  TIP3      4340            0.0000000000
     37937      4541  TIP3      OH2             6.1160889052      -17.0454894900       46.5140857664  TIP3      4341            0.0000000000
     37938      4541  TIP3      H1              5.1831304683      -17.0961410228       46.7968561605  TIP3      4341            0.0000000000
     37939      4541  TIP3      H2              6.6076094903      -17.2644669158       47.3185301712  TIP3      4341            0.0000000000
     37940      4542  TIP3      OH2             0.9380849080      -15.5381072056       45.3556798724  TIP3      4342            0.0000000000
     37941      4542  TIP3      H1              0.0401807463      -15.3900763975       44.9937117695  TIP3      4342            0.0000000000
     37942      4542  TIP3      H2              1.1988141537      -16.3861559676       44.9623175046  TIP3      4342            0.0000000000
     37943      4543  TIP3      OH2             4.5574134106      -15.4972565859       43.0075279187  TIP3      4343            0.0000000000
     37944      4543  TIP3      H1              5.5149118070      -15.3876483040       43.1626937535  TIP3      4343            0.0000000000
     37945      4543  TIP3      H2              4.3221835149      -14.8165890393       42.3479729106  TIP3      4343            0.0000000000
     37946      4544  TIP3      OH2            10.5158295795      -17.9139594008       49.6015612359  TIP3      4344            0.0000000000
     37947      4544  TIP3      H1              9.9149935615      -17.8173212568       50.3551651375  TIP3      4344            0.0000000000
     37948      4544  TIP3      H2              9.9043685069      -18.1332948225       48.9013536366  TIP3      4344            0.0000000000
     37949      4545  TIP3      OH2             3.2667269542      -14.3216904787       40.5901046177  TIP3      4345            0.0000000000
     37950      4545  TIP3      H1              2.7333368963      -14.7009649165       39.8707247225  TIP3      4345            0.0000000000
     37951      4545  TIP3      H2              4.0867132323      -14.1132492795       40.1159384259  TIP3      4345            0.0000000000
     37952      4546  TIP3      OH2             7.3597596843      -14.3767411364       48.4072080633  TIP3      4346            0.0000000000
     37953      4546  TIP3      H1              7.9845373737      -14.8648089700       47.8426206235  TIP3      4346            0.0000000000
     37954      4546  TIP3      H2              7.2901321154      -14.9373038498       49.1848024255  TIP3      4346            0.0000000000
     37955      4547  TIP3      OH2             2.4014483602      -18.2005549166       44.8285924365  TIP3      4347            0.0000000000
     37956      4547  TIP3      H1              2.0837703018      -19.1222741643       44.8147545685  TIP3      4347            0.0000000000
     37957      4547  TIP3      H2              3.1871794265      -18.2678989774       44.2714360183  TIP3      4347            0.0000000000
     37958      4548  TIP3      OH2             6.6163437903       -9.7920720550       42.5138994102  TIP3      4348            0.0000000000
     37959      4548  TIP3      H1              5.8165724862      -10.2537735085       42.1754940170  TIP3      4348            0.0000000000
     37960      4548  TIP3      H2              6.3884389051       -9.6623100684       43.4564860850  TIP3      4348            0.0000000000
     37961      4549  TIP3      OH2            10.4415916334      -16.9767364379       40.6902556998  TIP3      4349            0.0000000000
     37962      4549  TIP3      H1              9.4926280945      -16.8198835688       40.5512188384  TIP3      4349            0.0000000000
     37963      4549  TIP3      H2             10.7856917128      -16.1253884833       41.0371741296  TIP3      4349            0.0000000000
     37964      4550  TIP3      OH2            11.1832049392      -15.0513191011       42.3084177857  TIP3      4350            0.0000000000
     37965      4550  TIP3      H1             12.0656755731      -15.1894028570       42.7169150026  TIP3      4350            0.0000000000
     37966      4550  TIP3      H2             11.2922407169      -14.2294387593       41.8014002180  TIP3      4350            0.0000000000
     37967      4551  TIP3      OH2             1.6302525027      -10.4453559570       48.2604838176  TIP3      4351            0.0000000000
     37968      4551  TIP3      H1              2.3851384704      -10.4637342411       47.6474286282  TIP3      4351            0.0000000000
     37969      4551  TIP3      H2              1.8073724879      -11.2528227476       48.7591075505  TIP3      4351            0.0000000000
     37970      4552  TIP3      OH2             8.7096215080       -8.3198279305       41.5417883377  TIP3      4352            0.0000000000
     37971      4552  TIP3      H1              8.3665043760       -7.4777380106       41.9018129283  TIP3      4352            0.0000000000
     37972      4552  TIP3      H2              7.9814374876       -8.9380177628       41.7667046522  TIP3      4352            0.0000000000
     37973      4553  TIP3      OH2            16.0896848740      -14.9174987078       42.0885566673  TIP3      4353            0.0000000000
     37974      4553  TIP3      H1             15.5167319103      -15.1999217118       41.3507608627  TIP3      4353            0.0000000000
     37975      4553  TIP3      H2             16.1789665184      -13.9720725606       41.8346337725  TIP3      4353            0.0000000000
     37976      4554  TIP3      OH2            14.3412669816       -6.0822763726       42.4855328226  TIP3      4354            0.0000000000
     37977      4554  TIP3      H1             14.0082573994       -6.9190468985       42.8340481911  TIP3      4354            0.0000000000
     37978      4554  TIP3      H2             14.6940630183       -6.3043910516       41.6077022868  TIP3      4354            0.0000000000
     37979      4555  TIP3      OH2            11.2784015222      -11.1881435787       48.9165827788  TIP3      4355            0.0000000000
     37980      4555  TIP3      H1             10.4746320508      -11.4406633388       49.4141267601  TIP3      4355            0.0000000000
     37981      4555  TIP3      H2             11.7816834666      -12.0277985177       48.8387182242  TIP3      4355            0.0000000000
     37982      4556  TIP3      OH2             4.1018787505       -6.9356948684       45.7099596495  TIP3      4356            0.0000000000
     37983      4556  TIP3      H1              4.6003533781       -6.1290148177       45.5008036879  TIP3      4356            0.0000000000
     37984      4556  TIP3      H2              3.2261617297       -6.7119548499       45.3673386880  TIP3      4356            0.0000000000
     37985      4557  TIP3      OH2            -0.1327309820      -12.1012518057       40.2670113826  TIP3      4357            0.0000000000
     37986      4557  TIP3      H1              0.4457267912      -11.4354981819       40.6769936085  TIP3      4357            0.0000000000
     37987      4557  TIP3      H2             -1.0232060614      -11.7878757680       40.5149676226  TIP3      4357            0.0000000000
     37988      4558  TIP3      OH2             5.5064005639       -9.2636242305       45.1928883513  TIP3      4358            0.0000000000
     37989      4558  TIP3      H1              5.1977682034       -8.3489899887       45.3186295508  TIP3      4358            0.0000000000
     37990      4558  TIP3      H2              4.7926154568       -9.7600183479       45.6341092148  TIP3      4358            0.0000000000
     37991      4559  TIP3      OH2             4.2015357931       -4.2761456998       44.7285180752  TIP3      4359            0.0000000000
     37992      4559  TIP3      H1              3.2389104813       -4.1440425116       44.8695872078  TIP3      4359            0.0000000000
     37993      4559  TIP3      H2              4.5563522620       -3.4561675698       45.1197262829  TIP3      4359            0.0000000000
     37994      4560  TIP3      OH2            11.8275741050       -8.0092527781       40.3327848282  TIP3      4360            0.0000000000
     37995      4560  TIP3      H1             12.1228608360       -8.4881377536       41.1333098772  TIP3      4360            0.0000000000
     37996      4560  TIP3      H2             10.8747213774       -8.1998784320       40.4115446146  TIP3      4360            0.0000000000
     37997      4561  TIP3      OH2            16.2905046224       -3.6645929892       40.5884300988  TIP3      4361            0.0000000000
     37998      4561  TIP3      H1             16.9771739719       -2.9998017799       40.3794229746  TIP3      4361            0.0000000000
     37999      4561  TIP3      H2             15.5744537876       -3.0534325023       40.8719210050  TIP3      4361            0.0000000000
     38000      4562  TIP3      OH2            12.6020719260       -9.3841816209       42.5760159645  TIP3      4362            0.0000000000
     38001      4562  TIP3      H1             12.3640786359      -10.1684041334       43.1207990749  TIP3      4362            0.0000000000
     38002      4562  TIP3      H2             13.5551634211       -9.3399125500       42.7510464588  TIP3      4362            0.0000000000
     38003      4563  TIP3      OH2             5.9581345360       -6.9409912055       38.8289742966  TIP3      4363            0.0000000000
     38004      4563  TIP3      H1              6.0542985264       -7.7068884658       38.2369133169  TIP3      4363            0.0000000000
     38005      4563  TIP3      H2              5.5128933016       -7.3757227770       39.5906214328  TIP3      4363            0.0000000000
     38006      4564  TIP3      OH2             4.7263937632       -7.4152651419       41.2807683129  TIP3      4364            0.0000000000
     38007      4564  TIP3      H1              4.9981013018       -7.9329912989       42.0488939495  TIP3      4364            0.0000000000
     38008      4564  TIP3      H2              4.8204033790       -6.4903735143       41.6058484507  TIP3      4364            0.0000000000
     38009      4565  TIP3      OH2             1.2689522463      -10.1722684655       41.7585222930  TIP3      4365            0.0000000000
     38010      4565  TIP3      H1              0.5565866205       -9.7770394983       42.3014154175  TIP3      4365            0.0000000000
     38011      4565  TIP3      H2              1.7755953381       -9.3917393130       41.4698395377  TIP3      4365            0.0000000000
     38012      4566  TIP3      OH2             9.8395327741      -17.9187155788       43.1719215083  TIP3      4366            0.0000000000
     38013      4566  TIP3      H1             10.0715801203      -17.4549241270       42.3448581720  TIP3      4366            0.0000000000
     38014      4566  TIP3      H2             10.4174413536      -17.4729593619       43.8049612551  TIP3      4366            0.0000000000
     38015      4567  TIP3      OH2             7.5393323938       -5.7582028536       41.9760398686  TIP3      4367            0.0000000000
     38016      4567  TIP3      H1              6.7099507468       -5.2477165880       42.0508097937  TIP3      4367            0.0000000000
     38017      4567  TIP3      H2              8.0776333427       -5.2228968688       41.3815749885  TIP3      4367            0.0000000000
     38018      4568  TIP3      OH2             7.0765519789      -16.1655507707       43.9803537512  TIP3      4368            0.0000000000
     38019      4568  TIP3      H1              7.8545445115      -15.5775216281       44.0382469887  TIP3      4368            0.0000000000
     38020      4568  TIP3      H2              6.8048520238      -16.3007239943       44.9071288503  TIP3      4368            0.0000000000
     38021      4569  TIP3      OH2             7.9262504413      -19.1013850312       44.8671720708  TIP3      4369            0.0000000000
     38022      4569  TIP3      H1              7.6091282552      -18.4546153727       45.5233920546  TIP3      4369            0.0000000000
     38023      4569  TIP3      H2              8.6215944309      -18.5555988124       44.4276455843  TIP3      4369            0.0000000000
     38024      4570  TIP3      OH2             4.9561237089       -4.7078476888       41.9992750827  TIP3      4370            0.0000000000
     38025      4570  TIP3      H1              5.0087625029       -3.8977673585       41.4579617178  TIP3      4370            0.0000000000
     38026      4570  TIP3      H2              4.6607706139       -4.3718545610       42.8790601106  TIP3      4370            0.0000000000
     38027      4571  TIP3      OH2             3.5793129566      -18.0002273677       41.5834823884  TIP3      4371            0.0000000000
     38028      4571  TIP3      H1              3.5295887220      -17.1017799333       41.9676937925  TIP3      4371            0.0000000000
     38029      4571  TIP3      H2              4.4882816374      -18.2443444309       41.8464194678  TIP3      4371            0.0000000000
     38030      4572  TIP3      OH2            12.3821745392      -13.4241180859       47.9624710353  TIP3      4372            0.0000000000
     38031      4572  TIP3      H1             11.5668116094      -13.9162333157       47.7557388917  TIP3      4372            0.0000000000
     38032      4572  TIP3      H2             12.8785218675      -14.1142855759       48.4640366479  TIP3      4372            0.0000000000
     38033      4573  TIP3      OH2             1.8103412093       -7.5615223014       40.6196287701  TIP3      4373            0.0000000000
     38034      4573  TIP3      H1              2.4745119061       -6.9333886166       40.9373453197  TIP3      4373            0.0000000000
     38035      4573  TIP3      H2              2.3388848158       -8.0265751287       39.9392678408  TIP3      4373            0.0000000000
     38036      4574  TIP3      OH2             0.1565794663      -14.8854082578       39.7672390330  TIP3      4374            0.0000000000
     38037      4574  TIP3      H1              0.1750192670      -13.9258335078       39.9744794941  TIP3      4374            0.0000000000
     38038      4574  TIP3      H2             -0.7355447064      -15.0579658958       39.4608142759  TIP3      4374            0.0000000000
     38039      4575  TIP3      OH2            13.7712503235       -3.9854821213       49.6052840458  TIP3      4375            0.0000000000
     38040      4575  TIP3      H1             13.5949346303       -3.3334859983       48.8860693005  TIP3      4375            0.0000000000
     38041      4575  TIP3      H2             14.7157508700       -3.9815553716       49.7578875902  TIP3      4375            0.0000000000
     38042      4576  TIP3      OH2             0.9971516856      -20.1604000895       48.4779599081  TIP3      4376            0.0000000000
     38043      4576  TIP3      H1              0.7636279140      -20.0644418520       47.5253678762  TIP3      4376            0.0000000000
     38044      4576  TIP3      H2              0.5024318608      -20.9705634768       48.6971735919  TIP3      4376            0.0000000000
     38045      4577  TIP3      OH2            -0.0738167180       -6.1801083061       44.6587873403  TIP3      4377            0.0000000000
     38046      4577  TIP3      H1             -0.9272678623       -5.7282854179       44.6005129085  TIP3      4377            0.0000000000
     38047      4577  TIP3      H2              0.4056392902       -5.7167492522       43.9577027118  TIP3      4377            0.0000000000
     38048      4578  TIP3      OH2             7.9488874732       -5.0737854137       38.9779045503  TIP3      4378            0.0000000000
     38049      4578  TIP3      H1              7.2572458343       -5.7482792930       39.1760338834  TIP3      4378            0.0000000000
     38050      4578  TIP3      H2              8.6600940964       -5.6730617037       38.7062663605  TIP3      4378            0.0000000000
     38051      4579  TIP3      OH2            12.5077139843       -5.3481047995       39.1396687000  TIP3      4379            0.0000000000
     38052      4579  TIP3      H1             12.8028969762       -6.1262713986       39.6407330543  TIP3      4379            0.0000000000
     38053      4579  TIP3      H2             13.2702443339       -5.1274060780       38.5851095178  TIP3      4379            0.0000000000
     38054      4580  TIP3      OH2             3.3965065894       -9.4090670437       38.9560103775  TIP3      4380            0.0000000000
     38055      4580  TIP3      H1              3.5351266374      -10.1703454710       39.5401544186  TIP3      4380            0.0000000000
     38056      4580  TIP3      H2              4.1443409268       -9.5290920580       38.3380678288  TIP3      4380            0.0000000000
     38057      4581  TIP3      OH2             8.8251484461       -8.2998371220       38.7336267084  TIP3      4381            0.0000000000
     38058      4581  TIP3      H1              8.5546099235       -8.2204694282       39.6619126482  TIP3      4381            0.0000000000
     38059      4581  TIP3      H2              8.6369433009       -9.2575532881       38.5881919222  TIP3      4381            0.0000000000
     38060      4582  TIP3      OH2             4.5926441908      -11.3892798151       41.3800748922  TIP3      4382            0.0000000000
     38061      4582  TIP3      H1              4.0933933639      -11.9289273947       42.0095296269  TIP3      4382            0.0000000000
     38062      4582  TIP3      H2              4.8969630185      -12.0642614149       40.7295462480  TIP3      4382            0.0000000000
     38063      4583  TIP3      OH2             5.6741735535      -13.1692260259       39.5822466512  TIP3      4383            0.0000000000
     38064      4583  TIP3      H1              5.5244424743      -13.2576502461       38.6187118790  TIP3      4383            0.0000000000
     38065      4583  TIP3      H2              6.6501816248      -13.1174375502       39.6498216915  TIP3      4383            0.0000000000
     38066      4584  TIP3      OH2            15.0000688737      -10.8489785047       38.9933732628  TIP3      4384            0.0000000000
     38067      4584  TIP3      H1             14.8132586649      -11.2303718020       38.1219187097  TIP3      4384            0.0000000000
     38068      4584  TIP3      H2             15.0914087668       -9.8873437856       38.8074093047  TIP3      4384            0.0000000000
     38069      4585  TIP3      OH2             5.5247257076       -2.3136665547       40.7335960323  TIP3      4385            0.0000000000
     38070      4585  TIP3      H1              6.4902522549       -2.5004593784       40.6919010321  TIP3      4385            0.0000000000
     38071      4585  TIP3      H2              5.3441155956       -1.9806243402       39.8439724855  TIP3      4385            0.0000000000
     38072      4586  TIP3      OH2            -0.9451371011       -7.8968590258       40.1313746546  TIP3      4386            0.0000000000
     38073      4586  TIP3      H1              0.0219904080       -7.8024800219       40.3104164354  TIP3      4386            0.0000000000
     38074      4586  TIP3      H2             -0.8941793057       -8.5386639474       39.3835470006  TIP3      4386            0.0000000000
     38075      4587  TIP3      OH2            -2.1617045707       -2.4936229361       45.0801213616  TIP3      4387            0.0000000000
     38076      4587  TIP3      H1             -2.8730372287       -2.9890156921       44.6188830399  TIP3      4387            0.0000000000
     38077      4587  TIP3      H2             -1.8791779313       -3.1530772207       45.7457726110  TIP3      4387            0.0000000000
     38078      4588  TIP3      OH2            -1.3994605217       -4.3612318675       46.8919397411  TIP3      4388            0.0000000000
     38079      4588  TIP3      H1             -1.6656303374       -5.2629055662       47.1300326227  TIP3      4388            0.0000000000
     38080      4588  TIP3      H2             -1.0612807737       -4.0489165392       47.7724612830  TIP3      4388            0.0000000000
     38081      4589  TIP3      OH2            15.5349000807       -9.9255149324       42.9428818509  TIP3      4389            0.0000000000
     38082      4589  TIP3      H1             16.4023117319       -9.5407390961       43.1351919190  TIP3      4389            0.0000000000
     38083      4589  TIP3      H2             15.5192347896      -10.6519836545       43.6036887205  TIP3      4389            0.0000000000
     38084      4590  TIP3      OH2            15.8805521465      -11.8514625347       44.8166824408  TIP3      4390            0.0000000000
     38085      4590  TIP3      H1             15.1429378500      -12.3518404383       45.2272168794  TIP3      4390            0.0000000000
     38086      4590  TIP3      H2             16.4968015966      -11.7216113019       45.5721358019  TIP3      4390            0.0000000000
     38087      4591  TIP3      OH2            15.7583702947       -8.9081049352       49.6943690358  TIP3      4391            0.0000000000
     38088      4591  TIP3      H1             16.5542269333       -9.4170893855       49.4584432910  TIP3      4391            0.0000000000
     38089      4591  TIP3      H2             15.9413417513       -7.9670344812       49.5687852971  TIP3      4391            0.0000000000
     38090      4592  TIP3      OH2            16.1824687214      -12.0364536597       41.2315080817  TIP3      4392            0.0000000000
     38091      4592  TIP3      H1             15.6260219353      -11.6910161926       40.5028801080  TIP3      4392            0.0000000000
     38092      4592  TIP3      H2             16.0923239008      -11.3176078823       41.8842846547  TIP3      4392            0.0000000000
     38093      4593  TIP3      OH2            14.5687252776      -14.8050956419       39.7400961057  TIP3      4393            0.0000000000
     38094      4593  TIP3      H1             14.6506062554      -14.1416639261       39.0440250026  TIP3      4393            0.0000000000
     38095      4593  TIP3      H2             14.3835152328      -15.6286705707       39.2442303458  TIP3      4393            0.0000000000
     38096      4594  TIP3      OH2            13.7155785922      -13.3876901746       45.4402237755  TIP3      4394            0.0000000000
     38097      4594  TIP3      H1             13.5733118001      -14.3440876557       45.3822891220  TIP3      4394            0.0000000000
     38098      4594  TIP3      H2             13.3684871438      -13.1885210245       46.3267188855  TIP3      4394            0.0000000000
     38099      4595  TIP3      OH2            -1.2973247133      -11.2223042373       49.3404127471  TIP3      4395            0.0000000000
     38100      4595  TIP3      H1             -1.0607719600      -11.3886092371       48.4080107889  TIP3      4395            0.0000000000
     38101      4595  TIP3      H2             -0.4817960204      -11.4533173944       49.8196462646  TIP3      4395            0.0000000000
     38102      4596  TIP3      OH2            13.8109739935      -17.3264831243       38.8803569021  TIP3      4396            0.0000000000
     38103      4596  TIP3      H1             14.4049751916      -17.7677659793       39.5187048672  TIP3      4396            0.0000000000
     38104      4596  TIP3      H2             12.9498848355      -17.7478291933       39.0307701563  TIP3      4396            0.0000000000
     38105      4597  TIP3      OH2            13.3601237987      -15.8026631558       43.8181745283  TIP3      4397            0.0000000000
     38106      4597  TIP3      H1             13.6778820971      -16.7210347216       43.9840002122  TIP3      4397            0.0000000000
     38107      4597  TIP3      H2             14.1850850939      -15.3933332939       43.5218550470  TIP3      4397            0.0000000000
     38108      4598  TIP3      OH2            13.9872258577      -15.1362573689       48.8715367084  TIP3      4398            0.0000000000
     38109      4598  TIP3      H1             14.9486339145      -15.1038660262       49.0669008031  TIP3      4398            0.0000000000
     38110      4598  TIP3      H2             13.6213605560      -15.2081600857       49.7792715563  TIP3      4398            0.0000000000
     38111      4599  TIP3      OH2            14.0551500588      -18.5123096361       43.9115539798  TIP3      4399            0.0000000000
     38112      4599  TIP3      H1             14.2665500715      -18.9447850024       44.7679638156  TIP3      4399            0.0000000000
     38113      4599  TIP3      H2             13.4565692619      -19.1509065188       43.4760493738  TIP3      4399            0.0000000000
     38114      4600  TIP3      OH2            -0.4827097621      -17.6998034734       48.4648385996  TIP3      4400            0.0000000000
     38115      4600  TIP3      H1             -0.0372486496      -18.5296815227       48.7094841048  TIP3      4400            0.0000000000
     38116      4600  TIP3      H2              0.0657330126      -17.0104231999       48.8773137276  TIP3      4400            0.0000000000
     38117      4601  TIP3      OH2            -2.1855478910      -14.7303855413       49.5180300597  TIP3      4401            0.0000000000
     38118      4601  TIP3      H1             -1.6527231957      -14.9606765428       48.7267192650  TIP3      4401            0.0000000000
     38119      4601  TIP3      H2             -1.7479607131      -13.8904452952       49.7436456267  TIP3      4401            0.0000000000
     38120      4602  TIP3      OH2            15.8700730714      -18.4758903926       40.4613552493  TIP3      4402            0.0000000000
     38121      4602  TIP3      H1             16.2840979555      -19.1888422050       39.9283417201  TIP3      4402            0.0000000000
     38122      4602  TIP3      H2             16.5806873158      -17.8104489040       40.5147322206  TIP3      4402            0.0000000000
     38123      4603  TIP3      OH2            -1.8094735251      -18.4258400302       43.5896582692  TIP3      4403            0.0000000000
     38124      4603  TIP3      H1             -2.7536929002      -18.2695226211       43.4242858525  TIP3      4403            0.0000000000
     38125      4603  TIP3      H2             -1.3933400686      -17.9507212545       42.8518239180  TIP3      4403            0.0000000000
     38126      4604  TIP3      OH2            12.9217873036       -3.4750380783       45.5170870766  TIP3      4404            0.0000000000
     38127      4604  TIP3      H1             13.5981824281       -3.7959247030       44.8905927986  TIP3      4404            0.0000000000
     38128      4604  TIP3      H2             13.4439342107       -2.9730845257       46.1631619392  TIP3      4404            0.0000000000
     38129      4605  TIP3      OH2            -0.0520929197       -3.8546920764       48.9881241455  TIP3      4405            0.0000000000
     38130      4605  TIP3      H1              0.0424606961       -3.9781297793       49.9421801939  TIP3      4405            0.0000000000
     38131      4605  TIP3      H2              0.8828959800       -4.0177770205       48.7517847930  TIP3      4405            0.0000000000
     38132      4606  TIP3      OH2             2.2063701270       -4.9783218413       47.9126158825  TIP3      4406            0.0000000000
     38133      4606  TIP3      H1              2.0776296487       -5.9292850740       48.0879336892  TIP3      4406            0.0000000000
     38134      4606  TIP3      H2              3.0721667964       -4.8481745419       48.3484939344  TIP3      4406            0.0000000000
     38135      4607  TIP3      OH2             4.7644491489       -4.4989550834       48.7597174785  TIP3      4407            0.0000000000
     38136      4607  TIP3      H1              4.9917072572       -5.4063007933       48.4945492998  TIP3      4407            0.0000000000
     38137      4607  TIP3      H2              4.8360444678       -4.5745277224       49.7166955210  TIP3      4407            0.0000000000
     38138      4608  TIP3      OH2             8.2991489308      -18.7945940558       47.8981764257  TIP3      4408            0.0000000000
     38139      4608  TIP3      H1              7.6608093009      -19.4498715306       48.2327427373  TIP3      4408            0.0000000000
     38140      4608  TIP3      H2              8.8718442028      -19.3769224877       47.3816156568  TIP3      4408            0.0000000000
     38141      4609  TIP3      OH2            13.4388251987      -20.7554037851       47.9934265314  TIP3      4409            0.0000000000
     38142      4609  TIP3      H1             14.0328199294      -20.1730306917       47.4693132742  TIP3      4409            0.0000000000
     38143      4609  TIP3      H2             12.5455796157      -20.4099938610       47.7917988245  TIP3      4409            0.0000000000
     38144      4610  TIP3      OH2            15.1190208528      -19.5528899048       46.2684897106  TIP3      4410            0.0000000000
     38145      4610  TIP3      H1             15.7909679619      -20.1268380466       45.8387325848  TIP3      4410            0.0000000000
     38146      4610  TIP3      H2             15.6114969095      -18.7060921529       46.3541859474  TIP3      4410            0.0000000000
     38147      4611  TIP3      OH2             0.6644843391      -20.2245243114       45.7199805460  TIP3      4411            0.0000000000
     38148      4611  TIP3      H1             -0.1448947055      -20.4282788713       45.2180335611  TIP3      4411            0.0000000000
     38149      4611  TIP3      H2              1.1170474270      -21.0906681046       45.6997294517  TIP3      4411            0.0000000000
     38150      4612  TIP3      OH2            -0.5703924021      -20.4756387421       41.4886804021  TIP3      4412            0.0000000000
     38151      4612  TIP3      H1             -0.0770928392      -19.8263008541       40.9559088819  TIP3      4412            0.0000000000
     38152      4612  TIP3      H2             -1.1366234565      -19.9013726306       42.0289302425  TIP3      4412            0.0000000000
     38153      4613  TIP3      OH2             5.1490004537      -20.3145974896       45.5382061864  TIP3      4413            0.0000000000
     38154      4613  TIP3      H1              6.0391982411      -19.9280999494       45.4551231057  TIP3      4413            0.0000000000
     38155      4613  TIP3      H2              5.1246416478      -20.5327402423       46.4658582811  TIP3      4413            0.0000000000
     38156      4614  TIP3      OH2            10.8556427099      -20.2539765973       47.1542139937  TIP3      4414            0.0000000000
     38157      4614  TIP3      H1             10.8043203150      -20.1584064800       46.2025752918  TIP3      4414            0.0000000000
     38158      4614  TIP3      H2             10.4530063986      -21.1378928628       47.3141362990  TIP3      4414            0.0000000000
     38159      4615  TIP3      OH2            12.1151745143      -20.2547841171       42.8639066709  TIP3      4415            0.0000000000
     38160      4615  TIP3      H1             11.3651960871      -19.6617742879       42.7059256243  TIP3      4415            0.0000000000
     38161      4615  TIP3      H2             11.6749675498      -21.1067985659       43.0982743431  TIP3      4415            0.0000000000
     38162      4616  TIP3      OH2            -0.6562272495       -4.5258892160       42.5215898861  TIP3      4416            0.0000000000
     38163      4616  TIP3      H1             -1.3175667822       -4.5426069459       41.8041295291  TIP3      4416            0.0000000000
     38164      4616  TIP3      H2             -0.6579581314       -3.5699210419       42.6908123342  TIP3      4416            0.0000000000
     38165      4617  TIP3      OH2             1.2583921265      -18.5296385017       39.9969126398  TIP3      4417            0.0000000000
     38166      4617  TIP3      H1              1.7900103383      -19.1500063422       39.4738618125  TIP3      4417            0.0000000000
     38167      4617  TIP3      H2              1.9231326033      -18.2097737679       40.6366129205  TIP3      4417            0.0000000000
     38168      4618  TIP3      OH2             6.2826355129      -18.2905843043       42.4047225299  TIP3      4418            0.0000000000
     38169      4618  TIP3      H1              6.5381289157      -18.8682040176       43.1431015143  TIP3      4418            0.0000000000
     38170      4618  TIP3      H2              6.3573208181      -17.4234046506       42.8613360420  TIP3      4418            0.0000000000
     38171      4619  TIP3      OH2             8.1829625443       -3.1114832392       40.7948028960  TIP3      4419            0.0000000000
     38172      4619  TIP3      H1              9.1451442639       -3.0183685780       40.6433431359  TIP3      4419            0.0000000000
     38173      4619  TIP3      H2              8.0151727603       -3.7491544352       40.0661934162  TIP3      4419            0.0000000000
     38174      4620  TIP3      OH2            14.9186327371       -3.7318910556       43.5644221085  TIP3      4420            0.0000000000
     38175      4620  TIP3      H1             14.7172617613       -4.5083843727       42.9944482458  TIP3      4420            0.0000000000
     38176      4620  TIP3      H2             14.8438481546       -2.9886554064       42.9302430003  TIP3      4420            0.0000000000
     38177      4621  TIP3      OH2             1.1363198922       -3.5416923192       39.4519157314  TIP3      4421            0.0000000000
     38178      4621  TIP3      H1              0.8818941402       -3.2869690391       40.3521283351  TIP3      4421            0.0000000000
     38179      4621  TIP3      H2              1.9180514450       -4.1038014239       39.6116581015  TIP3      4421            0.0000000000
     38180      4622  TIP3      OH2            28.6001249802      -11.0937476275       45.6309811781  TIP3      4422            0.0000000000
     38181      4622  TIP3      H1             28.5992598239      -10.1114700592       45.6027161655  TIP3      4422            0.0000000000
     38182      4622  TIP3      H2             27.8763705374      -11.3203831318       45.0236907313  TIP3      4422            0.0000000000
     38183      4623  TIP3      OH2            27.4747354368      -11.8325458821       49.1395611813  TIP3      4423            0.0000000000
     38184      4623  TIP3      H1             27.4090842036      -12.4796192197       49.8648219344  TIP3      4423            0.0000000000
     38185      4623  TIP3      H2             27.1709170430      -12.3112446307       48.3547333627  TIP3      4423            0.0000000000
     38186      4624  TIP3      OH2            31.0551547102       -8.9255174167       47.3515910158  TIP3      4424            0.0000000000
     38187      4624  TIP3      H1             30.7147749010       -9.6439351678       47.9121121308  TIP3      4424            0.0000000000
     38188      4624  TIP3      H2             31.1945890076       -8.2371986604       48.0593244516  TIP3      4424            0.0000000000
     38189      4625  TIP3      OH2            20.7815607080       -7.6296301312       49.0032867408  TIP3      4425            0.0000000000
     38190      4625  TIP3      H1             20.4139632854       -8.5341951368       48.8775881314  TIP3      4425            0.0000000000
     38191      4625  TIP3      H2             21.6790222764       -7.9256364390       49.2629523295  TIP3      4425            0.0000000000
     38192      4626  TIP3      OH2            17.3620001790      -14.1666661678       44.6997537952  TIP3      4426            0.0000000000
     38193      4626  TIP3      H1             16.9463050745      -13.2887815167       44.6023838341  TIP3      4426            0.0000000000
     38194      4626  TIP3      H2             16.8074323390      -14.6971819021       44.1101745396  TIP3      4426            0.0000000000
     38195      4627  TIP3      OH2            18.0701652273      -11.9391973846       46.7797049044  TIP3      4427            0.0000000000
     38196      4627  TIP3      H1             18.3430122897      -12.7355554660       47.2661681773  TIP3      4427            0.0000000000
     38197      4627  TIP3      H2             18.8033317137      -11.8265892160       46.1566630234  TIP3      4427            0.0000000000
     38198      4628  TIP3      OH2            28.2630820843       -3.7200550081       47.6858575979  TIP3      4428            0.0000000000
     38199      4628  TIP3      H1             28.9210216763       -4.3836755833       47.3628701373  TIP3      4428            0.0000000000
     38200      4628  TIP3      H2             28.0973438585       -4.0537739661       48.5688400924  TIP3      4428            0.0000000000
     38201      4629  TIP3      OH2            25.8974311855       -9.3478253980       49.5434542519  TIP3      4429            0.0000000000
     38202      4629  TIP3      H1             26.2213761692      -10.0694774317       48.9807916814  TIP3      4429            0.0000000000
     38203      4629  TIP3      H2             26.6354717812       -9.3158001453       50.1614921855  TIP3      4429            0.0000000000
     38204      4630  TIP3      OH2            29.0505126502      -14.9681841431       49.8898228354  TIP3      4430            0.0000000000
     38205      4630  TIP3      H1             29.1618642344      -15.9340091788       49.9024308494  TIP3      4430            0.0000000000
     38206      4630  TIP3      H2             28.9253320711      -14.8219851473       48.9273516619  TIP3      4430            0.0000000000
     38207      4631  TIP3      OH2            22.1409314420      -16.8878864979       47.1126700423  TIP3      4431            0.0000000000
     38208      4631  TIP3      H1             22.2245154031      -16.0421354630       46.6376304227  TIP3      4431            0.0000000000
     38209      4631  TIP3      H2             21.7138309967      -17.4595118898       46.4381978052  TIP3      4431            0.0000000000
     38210      4632  TIP3      OH2            29.8362442573      -16.7651434165       45.4907508601  TIP3      4432            0.0000000000
     38211      4632  TIP3      H1             30.4772373392      -17.1162080114       46.1577362611  TIP3      4432            0.0000000000
     38212      4632  TIP3      H2             30.4283115178      -16.2126487622       44.9651918070  TIP3      4432            0.0000000000
     38213      4633  TIP3      OH2            18.7306309000      -14.5082295106       47.8578339176  TIP3      4433            0.0000000000
     38214      4633  TIP3      H1             19.4155858397      -15.0360580596       48.3167165630  TIP3      4433            0.0000000000
     38215      4633  TIP3      H2             18.8726516123      -14.7968498192       46.9384611594  TIP3      4433            0.0000000000
     38216      4634  TIP3      OH2            23.8978635967      -12.9381347644       47.1739329653  TIP3      4434            0.0000000000
     38217      4634  TIP3      H1             24.5775242228      -13.5190830428       47.5622692550  TIP3      4434            0.0000000000
     38218      4634  TIP3      H2             23.3850015514      -13.5726347211       46.6293162295  TIP3      4434            0.0000000000
     38219      4635  TIP3      OH2            28.3062178163       -8.5028800105       44.7327694322  TIP3      4435            0.0000000000
     38220      4635  TIP3      H1             28.0400029146       -8.7845591835       43.8501384585  TIP3      4435            0.0000000000
     38221      4635  TIP3      H2             28.0251134115       -7.5647479675       44.7760833009  TIP3      4435            0.0000000000
     38222      4636  TIP3      OH2            31.6056079317      -17.4548553932       47.4652220834  TIP3      4436            0.0000000000
     38223      4636  TIP3      H1             31.4356683775      -18.2027460387       48.0528891876  TIP3      4436            0.0000000000
     38224      4636  TIP3      H2             32.2927487227      -17.0138305565       48.0013137836  TIP3      4436            0.0000000000
     38225      4637  TIP3      OH2            20.5989879427      -16.1175060367       49.1289050734  TIP3      4437            0.0000000000
     38226      4637  TIP3      H1             21.1650729366      -15.4240548898       49.4660970605  TIP3      4437            0.0000000000
     38227      4637  TIP3      H2             21.1237500547      -16.5424788266       48.4200501277  TIP3      4437            0.0000000000
     38228      4638  TIP3      OH2            18.0701295838       -8.7144730636       43.0237261860  TIP3      4438            0.0000000000
     38229      4638  TIP3      H1             17.8164373652       -8.3786239876       42.1446020946  TIP3      4438            0.0000000000
     38230      4638  TIP3      H2             18.1551347052       -7.8902641377       43.5431121222  TIP3      4438            0.0000000000
     38231      4639  TIP3      OH2            31.7270643543       -7.3323782462       49.2778422236  TIP3      4439            0.0000000000
     38232      4639  TIP3      H1             30.9391776524       -7.2208210767       49.8522786070  TIP3      4439            0.0000000000
     38233      4639  TIP3      H2             32.0867758146       -6.4586463067       49.4590995224  TIP3      4439            0.0000000000
     38234      4640  TIP3      OH2            24.9950328132      -20.6095343245       48.6006017190  TIP3      4440            0.0000000000
     38235      4640  TIP3      H1             24.9023521815      -21.5801831966       48.5591515559  TIP3      4440            0.0000000000
     38236      4640  TIP3      H2             24.1045151839      -20.3257445480       48.8948090430  TIP3      4440            0.0000000000
     38237      4641  TIP3      OH2            29.8976931946       -5.2571518073       46.3453436671  TIP3      4441            0.0000000000
     38238      4641  TIP3      H1             30.3536947425       -5.9786655643       45.8584493052  TIP3      4441            0.0000000000
     38239      4641  TIP3      H2             30.3605855530       -4.4663133361       45.9953778946  TIP3      4441            0.0000000000
     38240      4642  TIP3      OH2            31.1431635602       -7.3091538302       44.9117719419  TIP3      4442            0.0000000000
     38241      4642  TIP3      H1             30.8505796222       -8.0201048867       44.3157812105  TIP3      4442            0.0000000000
     38242      4642  TIP3      H2             31.1846328979       -7.8104533298       45.7487057923  TIP3      4442            0.0000000000
     38243      4643  TIP3      OH2            27.2523688324      -11.8512307041       43.1426113971  TIP3      4443            0.0000000000
     38244      4643  TIP3      H1             26.5616270185      -11.2701984655       42.7713426406  TIP3      4443            0.0000000000
     38245      4643  TIP3      H2             27.9647327536      -11.7589038490       42.4823184403  TIP3      4443            0.0000000000
     38246      4644  TIP3      OH2            27.3673511735      -13.2678130418       40.1464587314  TIP3      4444            0.0000000000
     38247      4644  TIP3      H1             28.0619448677      -13.3053209800       40.8177950419  TIP3      4444            0.0000000000
     38248      4644  TIP3      H2             27.6317720871      -14.0083310086       39.5870112795  TIP3      4444            0.0000000000
     38249      4645  TIP3      OH2            30.7095625138      -11.6367280414       44.0621221984  TIP3      4445            0.0000000000
     38250      4645  TIP3      H1             29.9574369846      -11.3990192758       44.6533077855  TIP3      4445            0.0000000000
     38251      4645  TIP3      H2             31.1768832895      -12.3210576681       44.5690220955  TIP3      4445            0.0000000000
     38252      4646  TIP3      OH2            22.3243423892      -10.9531200444       46.0182817903  TIP3      4446            0.0000000000
     38253      4646  TIP3      H1             21.9786987575      -11.3243257630       45.1667897357  TIP3      4446            0.0000000000
     38254      4646  TIP3      H2             22.9422616420      -11.6712486820       46.2683192263  TIP3      4446            0.0000000000
     38255      4647  TIP3      OH2            23.7497853149       -7.5212862312       48.5451604786  TIP3      4447            0.0000000000
     38256      4647  TIP3      H1             23.6388608756       -8.2310607855       47.8896860762  TIP3      4447            0.0000000000
     38257      4647  TIP3      H2             24.4028307758       -7.9622614727       49.1374249553  TIP3      4447            0.0000000000
     38258      4648  TIP3      OH2            22.5413486793      -12.1494655523       49.4944384593  TIP3      4448            0.0000000000
     38259      4648  TIP3      H1             23.1794419261      -12.0879470449       48.7664303826  TIP3      4448            0.0000000000
     38260      4648  TIP3      H2             23.0027656941      -11.6923692346       50.2135440830  TIP3      4448            0.0000000000
     38261      4649  TIP3      OH2            29.5911936700      -12.4382557089       41.7329324375  TIP3      4449            0.0000000000
     38262      4649  TIP3      H1             30.1436791292      -12.2539853827       42.5330193958  TIP3      4449            0.0000000000
     38263      4649  TIP3      H2             30.0365101404      -11.9425411749       41.0132799005  TIP3      4449            0.0000000000
     38264      4650  TIP3      OH2            27.2214248570       -5.7450063234       45.2377760456  TIP3      4450            0.0000000000
     38265      4650  TIP3      H1             27.7609974702       -5.4177735752       45.9681713174  TIP3      4450            0.0000000000
     38266      4650  TIP3      H2             26.7684962601       -4.9510989080       44.9304031802  TIP3      4450            0.0000000000
     38267      4651  TIP3      OH2            33.3101881860      -20.7208392339       41.6366662155  TIP3      4451            0.0000000000
     38268      4651  TIP3      H1             32.3597529347      -20.6169928665       41.8735193675  TIP3      4451            0.0000000000
     38269      4651  TIP3      H2             33.5098326270      -19.8753745465       41.1956099789  TIP3      4451            0.0000000000
     38270      4652  TIP3      OH2            21.2341850817      -11.9314060097       43.6790716564  TIP3      4452            0.0000000000
     38271      4652  TIP3      H1             21.0164497654      -11.1988819586       43.0691308806  TIP3      4452            0.0000000000
     38272      4652  TIP3      H2             20.6841126838      -12.6413313997       43.3325763613  TIP3      4452            0.0000000000
     38273      4653  TIP3      OH2            34.4238313884       -6.3599996987       39.9768162166  TIP3      4453            0.0000000000
     38274      4653  TIP3      H1             34.5839740633       -5.4164735828       40.1522227583  TIP3      4453            0.0000000000
     38275      4653  TIP3      H2             35.3533288130       -6.6650933089       39.9700783406  TIP3      4453            0.0000000000
     38276      4654  TIP3      OH2            17.2039237117       -6.6170449217       49.0728676168  TIP3      4454            0.0000000000
     38277      4654  TIP3      H1             18.1004765060       -6.9133568894       49.2708441334  TIP3      4454            0.0000000000
     38278      4654  TIP3      H2             17.0311733490       -5.9507578040       49.7412242974  TIP3      4454            0.0000000000
     38279      4655  TIP3      OH2            26.7648279532       -2.8153066549       43.6233539039  TIP3      4455            0.0000000000
     38280      4655  TIP3      H1             26.6674286167       -2.8904965197       42.6572127346  TIP3      4455            0.0000000000
     38281      4655  TIP3      H2             26.7792110293       -1.8525671743       43.7751308602  TIP3      4455            0.0000000000
     38282      4656  TIP3      OH2            20.4489412617       -3.9592897498       45.4117174748  TIP3      4456            0.0000000000
     38283      4656  TIP3      H1             20.5340224232       -4.3465691559       46.3053824220  TIP3      4456            0.0000000000
     38284      4656  TIP3      H2             19.5702285085       -4.3138431569       45.1775505847  TIP3      4456            0.0000000000
     38285      4657  TIP3      OH2            29.8334043756       -3.5907053714       40.5850323346  TIP3      4457            0.0000000000
     38286      4657  TIP3      H1             30.2935783554       -4.3490566388       40.1550764153  TIP3      4457            0.0000000000
     38287      4657  TIP3      H2             29.8732856800       -3.8501905570       41.5329862162  TIP3      4457            0.0000000000
     38288      4658  TIP3      OH2            29.5321482099       -3.6604534686       43.3703923335  TIP3      4458            0.0000000000
     38289      4658  TIP3      H1             28.5709574436       -3.5852492834       43.5391857737  TIP3      4458            0.0000000000
     38290      4658  TIP3      H2             29.7644662125       -4.4028852456       43.9487994230  TIP3      4458            0.0000000000
     38291      4659  TIP3      OH2            22.3239162696      -19.7610837514       49.4207006527  TIP3      4459            0.0000000000
     38292      4659  TIP3      H1             21.4563190646      -19.8690538569       48.9651979152  TIP3      4459            0.0000000000
     38293      4659  TIP3      H2             22.2526671999      -18.8946594549       49.8274411490  TIP3      4459            0.0000000000
     38294      4660  TIP3      OH2            31.0163695475      -11.3592551797       39.5220400261  TIP3      4460            0.0000000000
     38295      4660  TIP3      H1             31.0145738531      -11.6441515123       38.5861551823  TIP3      4460            0.0000000000
     38296      4660  TIP3      H2             31.8992759395      -10.9731714714       39.6143235326  TIP3      4460            0.0000000000
     38297      4661  TIP3      OH2            26.6566377508      -17.4932847698       40.0633293420  TIP3      4461            0.0000000000
     38298      4661  TIP3      H1             26.2977855947      -17.5444559132       40.9677782940  TIP3      4461            0.0000000000
     38299      4661  TIP3      H2             26.3252455668      -18.3599109043       39.7468400013  TIP3      4461            0.0000000000
     38300      4662  TIP3      OH2            22.4014181665      -14.6487361064       45.4928911434  TIP3      4462            0.0000000000
     38301      4662  TIP3      H1             21.4675401276      -14.9078803333       45.3508040387  TIP3      4462            0.0000000000
     38302      4662  TIP3      H2             22.7787078460      -14.9241456726       44.6301582991  TIP3      4462            0.0000000000
     38303      4663  TIP3      OH2            27.9278432985      -14.1467341700       44.2639721363  TIP3      4463            0.0000000000
     38304      4663  TIP3      H1             27.5415334221      -13.3113927602       43.9196603957  TIP3      4463            0.0000000000
     38305      4663  TIP3      H2             28.6214838304      -14.3184440326       43.6049785367  TIP3      4463            0.0000000000
     38306      4664  TIP3      OH2            28.9426522682      -14.6729559817       47.1243431716  TIP3      4464            0.0000000000
     38307      4664  TIP3      H1             28.7055056963      -14.0927043997       46.3755338105  TIP3      4464            0.0000000000
     38308      4664  TIP3      H2             29.0757505380      -15.5061993461       46.6212645854  TIP3      4464            0.0000000000
     38309      4665  TIP3      OH2            23.6305427373      -17.8238357783       38.9777870595  TIP3      4465            0.0000000000
     38310      4665  TIP3      H1             23.1817456269      -17.6324045445       39.8352112689  TIP3      4465            0.0000000000
     38311      4665  TIP3      H2             23.1303173710      -17.0801420773       38.5722223857  TIP3      4465            0.0000000000
     38312      4666  TIP3      OH2            16.7223954372      -17.3737634265       46.2605986718  TIP3      4466            0.0000000000
     38313      4666  TIP3      H1             17.3888634775      -17.4224959440       46.9778044585  TIP3      4466            0.0000000000
     38314      4666  TIP3      H2             17.1730228400      -17.7979932325       45.5083803257  TIP3      4466            0.0000000000
     38315      4667  TIP3      OH2            17.9764439796      -16.6943257059       41.6535777692  TIP3      4467            0.0000000000
     38316      4667  TIP3      H1             18.5198505277      -16.0979639419       41.0912853461  TIP3      4467            0.0000000000
     38317      4667  TIP3      H2             17.3140683247      -16.0459361102       41.9626181119  TIP3      4467            0.0000000000
     38318      4668  TIP3      OH2            24.9707175707      -17.0447853525       46.5153361877  TIP3      4468            0.0000000000
     38319      4668  TIP3      H1             24.0371576298      -17.0972263573       46.7988663110  TIP3      4468            0.0000000000
     38320      4668  TIP3      H2             25.4620805329      -17.2641481566       47.3183015018  TIP3      4468            0.0000000000
     38321      4669  TIP3      OH2            19.8048381714      -15.5369181722       45.3327104257  TIP3      4469            0.0000000000
     38322      4669  TIP3      H1             18.8973253884      -15.3909238422       44.9949850262  TIP3      4469            0.0000000000
     38323      4669  TIP3      H2             20.0622354039      -16.3865262006       44.9387095924  TIP3      4469            0.0000000000
     38324      4670  TIP3      OH2            23.4144972064      -15.4791235734       43.0102918525  TIP3      4470            0.0000000000
     38325      4670  TIP3      H1             24.3726353701      -15.3835136431       43.1361249127  TIP3      4470            0.0000000000
     38326      4670  TIP3      H2             23.1754669653      -14.8261439063       42.3327624437  TIP3      4470            0.0000000000
     38327      4671  TIP3      OH2            29.3734892811      -17.9097392860       49.5952867041  TIP3      4471            0.0000000000
     38328      4671  TIP3      H1             28.7749799706      -17.8150697916       50.3549092297  TIP3      4471            0.0000000000
     38329      4671  TIP3      H2             28.7578870751      -18.1322630163       48.8974077447  TIP3      4471            0.0000000000
     38330      4672  TIP3      OH2            21.9221535812      -13.3918078204       40.8974874303  TIP3      4472            0.0000000000
     38331      4672  TIP3      H1             21.3872246832      -14.1045625280       40.4397796045  TIP3      4472            0.0000000000
     38332      4672  TIP3      H2             22.6901216637      -13.8304641184       40.4519841905  TIP3      4472            0.0000000000
     38333      4673  TIP3      OH2            26.2056386610      -14.3825412709       48.3960702322  TIP3      4473            0.0000000000
     38334      4673  TIP3      H1             26.8408357256      -14.8670569785       47.8420993331  TIP3      4473            0.0000000000
     38335      4673  TIP3      H2             26.1462781814      -14.9318092845       49.1851381987  TIP3      4473            0.0000000000
     38336      4674  TIP3      OH2            21.2711532492      -18.1982677908       44.8499077237  TIP3      4474            0.0000000000
     38337      4674  TIP3      H1             20.9433455304      -19.1171583889       44.8142142573  TIP3      4474            0.0000000000
     38338      4674  TIP3      H2             22.0334606472      -18.2527524788       44.2519276739  TIP3      4474            0.0000000000
     38339      4675  TIP3      OH2            25.4751521160       -9.7904727872       42.5093266445  TIP3      4475            0.0000000000
     38340      4675  TIP3      H1             24.6767952280      -10.2624697684       42.1686477337  TIP3      4475            0.0000000000
     38341      4675  TIP3      H2             25.2459112327       -9.6875988260       43.4523068384  TIP3      4475            0.0000000000
     38342      4676  TIP3      OH2            29.3204355805      -16.9674117574       40.6828249490  TIP3      4476            0.0000000000
     38343      4676  TIP3      H1             28.3659318054      -16.8298420927       40.5508440139  TIP3      4476            0.0000000000
     38344      4676  TIP3      H2             29.6482998803      -16.1161895663       41.0433131923  TIP3      4476            0.0000000000
     38345      4677  TIP3      OH2            30.0289058153      -15.0422705606       42.3070048895  TIP3      4477            0.0000000000
     38346      4677  TIP3      H1             30.9120932029      -15.1817947023       42.7159956354  TIP3      4477            0.0000000000
     38347      4677  TIP3      H2             30.1380056035      -14.2259341408       41.7953511299  TIP3      4477            0.0000000000
     38348      4678  TIP3      OH2            20.5024417041      -10.4247990472       48.2594756744  TIP3      4478            0.0000000000
     38349      4678  TIP3      H1             21.2382941184      -10.4864265773       47.6271194171  TIP3      4478            0.0000000000
     38350      4678  TIP3      H2             20.6561281517      -11.2418597969       48.7527532916  TIP3      4478            0.0000000000
     38351      4679  TIP3      OH2            27.5710616280       -8.3148678278       41.5475735875  TIP3      4479            0.0000000000
     38352      4679  TIP3      H1             27.2251324071       -7.4741227853       41.8988902021  TIP3      4479            0.0000000000
     38353      4679  TIP3      H2             26.8419396515       -8.9373870176       41.7667273026  TIP3      4479            0.0000000000
     38354      4680  TIP3      OH2            34.9427825600      -14.9220462575       42.0926132220  TIP3      4480            0.0000000000
     38355      4680  TIP3      H1             34.3739496478      -15.2104053357       41.3552648034  TIP3      4480            0.0000000000
     38356      4680  TIP3      H2             35.0064794709      -13.9727939231       41.8313785114  TIP3      4480            0.0000000000
     38357      4681  TIP3      OH2            33.2221796333       -6.0840036559       42.4868804822  TIP3      4481            0.0000000000
     38358      4681  TIP3      H1             32.8678571499       -6.9152866093       42.8321898408  TIP3      4481            0.0000000000
     38359      4681  TIP3      H2             33.5682349809       -6.3080024871       41.6069761158  TIP3      4481            0.0000000000
     38360      4682  TIP3      OH2            30.1181941071      -11.2032804797       48.8813322704  TIP3      4482            0.0000000000
     38361      4682  TIP3      H1             29.3507168261      -11.4151071520       49.4512137744  TIP3      4482            0.0000000000
     38362      4682  TIP3      H2             30.6373069350      -12.0327467879       48.8668391415  TIP3      4482            0.0000000000
     38363      4683  TIP3      OH2            22.9224753892       -7.0015946297       45.5397548218  TIP3      4483            0.0000000000
     38364      4683  TIP3      H1             23.4435905371       -6.2219021956       45.2537725753  TIP3      4483            0.0000000000
     38365      4683  TIP3      H2             22.0204965223       -6.7687408463       45.2581721258  TIP3      4483            0.0000000000
     38366      4684  TIP3      OH2            18.7101097186      -12.0880007422       40.2527562534  TIP3      4484            0.0000000000
     38367      4684  TIP3      H1             19.3135494238      -11.4535711106       40.6763909561  TIP3      4484            0.0000000000
     38368      4684  TIP3      H2             17.8275756614      -11.7780681128       40.5221656237  TIP3      4484            0.0000000000
     38369      4685  TIP3      OH2            24.3962229422       -9.2766732481       45.2231461690  TIP3      4485            0.0000000000
     38370      4685  TIP3      H1             24.0419727630       -8.3747608992       45.2807660640  TIP3      4485            0.0000000000
     38371      4685  TIP3      H2             23.6608261002       -9.7834037058       45.6198892010  TIP3      4485            0.0000000000
     38372      4686  TIP3      OH2            23.0686467219       -4.3149000259       44.8644552051  TIP3      4486            0.0000000000
     38373      4686  TIP3      H1             22.0958093820       -4.1238844235       44.8285292808  TIP3      4486            0.0000000000
     38374      4686  TIP3      H2             23.4190789995       -3.4144061807       45.0526523116  TIP3      4486            0.0000000000
     38375      4687  TIP3      OH2            30.6894371512       -8.0400628860       40.3057639902  TIP3      4487            0.0000000000
     38376      4687  TIP3      H1             30.9751600163       -8.4760335811       41.1360695899  TIP3      4487            0.0000000000
     38377      4687  TIP3      H2             29.7304568502       -8.1902195327       40.4147523981  TIP3      4487            0.0000000000
     38378      4688  TIP3      OH2            35.1459126427       -3.6642118167       40.6065676728  TIP3      4488            0.0000000000
     38379      4688  TIP3      H1             35.8203400738       -3.0026961538       40.3641129926  TIP3      4488            0.0000000000
     38380      4688  TIP3      H2             34.4263889339       -3.0504447178       40.8711403556  TIP3      4488            0.0000000000
     38381      4689  TIP3      OH2            31.4585093322       -9.3823087954       42.5785361706  TIP3      4489            0.0000000000
     38382      4689  TIP3      H1             31.2214140780      -10.1660712059       43.1239325564  TIP3      4489            0.0000000000
     38383      4689  TIP3      H2             32.4129499251       -9.3417113575       42.7516810059  TIP3      4489            0.0000000000
     38384      4690  TIP3      OH2            24.8164990796       -6.9466699978       38.8265577312  TIP3      4490            0.0000000000
     38385      4690  TIP3      H1             24.9111086264       -7.7087850658       38.2331933346  TIP3      4490            0.0000000000
     38386      4690  TIP3      H2             24.3683336035       -7.3815418224       39.5841895837  TIP3      4490            0.0000000000
     38387      4691  TIP3      OH2            23.5762482239       -7.4227582981       41.2631281389  TIP3      4491            0.0000000000
     38388      4691  TIP3      H1             23.8544577929       -7.9534425144       42.0210232568  TIP3      4491            0.0000000000
     38389      4691  TIP3      H2             23.6796745842       -6.4976615653       41.5837144165  TIP3      4491            0.0000000000
     38390      4692  TIP3      OH2            20.1209520048      -10.1712994041       41.7624141652  TIP3      4492            0.0000000000
     38391      4692  TIP3      H1             19.4109789242       -9.7716500085       42.3053046830  TIP3      4492            0.0000000000
     38392      4692  TIP3      H2             20.6325904567       -9.3947165403       41.4717563857  TIP3      4492            0.0000000000
     38393      4693  TIP3      OH2            28.6923908854      -17.9133916784       43.1734501738  TIP3      4493            0.0000000000
     38394      4693  TIP3      H1             28.9303923653      -17.4559355055       42.3459731172  TIP3      4493            0.0000000000
     38395      4693  TIP3      H2             29.2748657176      -17.4729620608       43.8054862816  TIP3      4493            0.0000000000
     38396      4694  TIP3      OH2            26.3903804144       -5.7531309191       41.9698459737  TIP3      4494            0.0000000000
     38397      4694  TIP3      H1             25.5724670645       -5.2202489531       42.0292274728  TIP3      4494            0.0000000000
     38398      4694  TIP3      H2             26.9330903007       -5.2042997878       41.3868106672  TIP3      4494            0.0000000000
     38399      4695  TIP3      OH2            25.9591647942      -16.1747674102       44.0058356771  TIP3      4495            0.0000000000
     38400      4695  TIP3      H1             26.7296575711      -15.5758768946       44.0575924110  TIP3      4495            0.0000000000
     38401      4695  TIP3      H2             25.6802686960      -16.3081063026       44.9299692528  TIP3      4495            0.0000000000
     38402      4696  TIP3      OH2            26.7794531059      -19.1005096318       44.8681900217  TIP3      4496            0.0000000000
     38403      4696  TIP3      H1             26.4605906271      -18.4584129018       45.5263268731  TIP3      4496            0.0000000000
     38404      4696  TIP3      H2             27.4766874498      -18.5550192142       44.4289489188  TIP3      4496            0.0000000000
     38405      4697  TIP3      OH2            23.7944342920       -4.7286511081       42.0375200113  TIP3      4497            0.0000000000
     38406      4697  TIP3      H1             23.8830900872       -3.9277067148       41.4599061353  TIP3      4497            0.0000000000
     38407      4697  TIP3      H2             23.5149143318       -4.3293697925       42.8763032380  TIP3      4497            0.0000000000
     38408      4698  TIP3      OH2            22.4097480928      -18.0618173058       41.6906788680  TIP3      4498            0.0000000000
     38409      4698  TIP3      H1             22.3722925050      -17.1036492297       41.8897301233  TIP3      4498            0.0000000000
     38410      4698  TIP3      H2             23.3528411388      -18.2433795330       41.8398503641  TIP3      4498            0.0000000000
     38411      4699  TIP3      OH2            31.2497776387      -13.4279388427       47.9525195396  TIP3      4499            0.0000000000
     38412      4699  TIP3      H1             30.4272204636      -13.9122404624       47.7569637297  TIP3      4499            0.0000000000
     38413      4699  TIP3      H2             31.7344018942      -14.1164913995       48.4675336062  TIP3      4499            0.0000000000
     38414      4700  TIP3      OH2            20.6676146885       -7.5597259940       40.6176837512  TIP3      4500            0.0000000000
     38415      4700  TIP3      H1             21.3357906941       -6.9365974459       40.9382981288  TIP3      4500            0.0000000000
     38416      4700  TIP3      H2             21.2006718349       -8.0467354212       39.9550036578  TIP3      4500            0.0000000000
     38417      4701  TIP3      OH2            18.9611738759      -14.8773360565       39.7888599011  TIP3      4501            0.0000000000
     38418      4701  TIP3      H1             19.0213008425      -13.9169228164       39.9616748534  TIP3      4501            0.0000000000
     38419      4701  TIP3      H2             18.0883876463      -15.0419008605       39.4413416197  TIP3      4501            0.0000000000
     38420      4702  TIP3      OH2            32.6266615708       -3.9702002704       49.6005724035  TIP3      4502            0.0000000000
     38421      4702  TIP3      H1             32.4495492871       -3.3303088338       48.8745909619  TIP3      4502            0.0000000000
     38422      4702  TIP3      H2             33.5700887792       -3.9866369238       49.7499779724  TIP3      4502            0.0000000000
     38423      4703  TIP3      OH2            19.8225737784      -20.1142780950       48.4506174803  TIP3      4503            0.0000000000
     38424      4703  TIP3      H1             19.6094116061      -20.0876762478       47.4977851510  TIP3      4503            0.0000000000
     38425      4703  TIP3      H2             19.4493337338      -20.9581559228       48.7416577299  TIP3      4503            0.0000000000
     38426      4704  TIP3      OH2            18.8136225424       -6.1564724047       44.6808624900  TIP3      4504            0.0000000000
     38427      4704  TIP3      H1             17.9401623923       -5.7437769441       44.6081934797  TIP3      4504            0.0000000000
     38428      4704  TIP3      H2             19.2471483997       -5.7132914405       43.9387522183  TIP3      4504            0.0000000000
     38429      4705  TIP3      OH2            26.8124708415       -5.0881421467       38.9603811000  TIP3      4505            0.0000000000
     38430      4705  TIP3      H1             26.1145779070       -5.7496300264       39.1771149090  TIP3      4505            0.0000000000
     38431      4705  TIP3      H2             27.5228128498       -5.6921779053       38.7057778456  TIP3      4505            0.0000000000
     38432      4706  TIP3      OH2            31.3565778863       -5.3650060164       39.1217894733  TIP3      4506            0.0000000000
     38433      4706  TIP3      H1             31.6663021939       -6.1134754361       39.6545944675  TIP3      4506            0.0000000000
     38434      4706  TIP3      H2             32.1303032975       -5.1098471719       38.5993129054  TIP3      4506            0.0000000000
     38435      4707  TIP3      OH2            22.2545584404       -9.4219738213       38.9618357938  TIP3      4507            0.0000000000
     38436      4707  TIP3      H1             22.3901108372      -10.1937728595       39.5357428199  TIP3      4507            0.0000000000
     38437      4707  TIP3      H2             22.9993305243       -9.5291449418       38.3399739139  TIP3      4507            0.0000000000
     38438      4708  TIP3      OH2            27.7234923110       -8.3078477633       38.7296330181  TIP3      4508            0.0000000000
     38439      4708  TIP3      H1             27.4207515766       -8.2152562586       39.6467730310  TIP3      4508            0.0000000000
     38440      4708  TIP3      H2             27.4774843711       -9.2516504659       38.5895196627  TIP3      4508            0.0000000000
     38441      4709  TIP3      OH2            23.5133217924      -11.3397154620       41.4166822036  TIP3      4509            0.0000000000
     38442      4709  TIP3      H1             22.9328548135      -11.9155342848       41.9549234788  TIP3      4509            0.0000000000
     38443      4709  TIP3      H2             23.7333652722      -12.0189434550       40.7307512845  TIP3      4509            0.0000000000
     38444      4710  TIP3      OH2            24.5497368131      -13.1053099441       39.5838278236  TIP3      4510            0.0000000000
     38445      4710  TIP3      H1             24.3424479874      -13.2999510886       38.6469171897  TIP3      4510            0.0000000000
     38446      4710  TIP3      H2             25.5242049769      -13.1299826189       39.6304327015  TIP3      4510            0.0000000000
     38447      4711  TIP3      OH2            33.8198940797      -10.8400072420       39.0024292014  TIP3      4511            0.0000000000
     38448      4711  TIP3      H1             33.6985552514      -11.2461958525       38.1353103216  TIP3      4511            0.0000000000
     38449      4711  TIP3      H2             33.9620614925       -9.8835096570       38.8225666994  TIP3      4511            0.0000000000
     38450      4712  TIP3      OH2            24.3595469046       -2.4696373479       40.6639601575  TIP3      4512            0.0000000000
     38451      4712  TIP3      H1             25.3266361999       -2.3842704314       40.7306795992  TIP3      4512            0.0000000000
     38452      4712  TIP3      H2             24.2133851416       -1.8684595626       39.9229912473  TIP3      4512            0.0000000000
     38453      4713  TIP3      OH2            17.9099724197       -7.8974492339       40.1303946032  TIP3      4513            0.0000000000
     38454      4713  TIP3      H1             18.8770316074       -7.8018142170       40.3052607685  TIP3      4513            0.0000000000
     38455      4713  TIP3      H2             17.9605281259       -8.5394729876       39.3829696362  TIP3      4513            0.0000000000
     38456      4714  TIP3      OH2            16.7006486312       -2.4867691612       45.0786044792  TIP3      4514            0.0000000000
     38457      4714  TIP3      H1             15.9844650503       -2.9942856533       44.6330224904  TIP3      4514            0.0000000000
     38458      4714  TIP3      H2             16.9808708660       -3.1461901698       45.7468185823  TIP3      4514            0.0000000000
     38459      4715  TIP3      OH2            17.4260199882       -4.3509147826       46.8956721305  TIP3      4515            0.0000000000
     38460      4715  TIP3      H1             17.1917219061       -5.2630951580       47.1268144748  TIP3      4515            0.0000000000
     38461      4715  TIP3      H2             17.7666382304       -4.0406834934       47.7739621010  TIP3      4515            0.0000000000
     38462      4716  TIP3      OH2            34.3415342909       -9.9176918377       42.9642577696  TIP3      4516            0.0000000000
     38463      4716  TIP3      H1             35.2205630484       -9.5429307622       43.1288130869  TIP3      4516            0.0000000000
     38464      4716  TIP3      H2             34.3636823861      -10.6581475447       43.6067170836  TIP3      4516            0.0000000000
     38465      4717  TIP3      OH2            34.7646575088      -11.8671342490       44.8108533094  TIP3      4517            0.0000000000
     38466      4717  TIP3      H1             34.0154761332      -12.3539182178       45.2188319457  TIP3      4517            0.0000000000
     38467      4717  TIP3      H2             35.3631100411      -11.7179366074       45.5720861211  TIP3      4517            0.0000000000
     38468      4718  TIP3      OH2            34.6167589060       -8.9076204418       49.6860440215  TIP3      4518            0.0000000000
     38469      4718  TIP3      H1             35.4104958481       -9.4199600536       49.4484254866  TIP3      4518            0.0000000000
     38470      4718  TIP3      H2             34.8003971113       -7.9673098385       49.5607238993  TIP3      4518            0.0000000000
     38471      4719  TIP3      OH2            35.0641385350      -12.0356754500       41.2412961447  TIP3      4519            0.0000000000
     38472      4719  TIP3      H1             34.5009747743      -11.6972312627       40.5220245274  TIP3      4519            0.0000000000
     38473      4719  TIP3      H2             34.9772583824      -11.3088759265       41.8830399835  TIP3      4519            0.0000000000
     38474      4720  TIP3      OH2            33.4183095742      -14.8145696190       39.7468816542  TIP3      4520            0.0000000000
     38475      4720  TIP3      H1             33.5243346634      -14.1550675998       39.0546239607  TIP3      4520            0.0000000000
     38476      4720  TIP3      H2             33.2391627973      -15.6355320466       39.2506119018  TIP3      4520            0.0000000000
     38477      4721  TIP3      OH2            32.5753713005      -13.3931515881       45.4334428305  TIP3      4521            0.0000000000
     38478      4721  TIP3      H1             32.4253674569      -14.3490131242       45.3825850474  TIP3      4521            0.0000000000
     38479      4721  TIP3      H2             32.2272170820      -13.1889625089       46.3229600062  TIP3      4521            0.0000000000
     38480      4722  TIP3      OH2            17.5571399989      -11.2242477932       49.3388210720  TIP3      4522            0.0000000000
     38481      4722  TIP3      H1             17.8016362010      -11.3877262244       48.4056439791  TIP3      4522            0.0000000000
     38482      4722  TIP3      H2             18.3725339642      -11.4536080545       49.8192922046  TIP3      4522            0.0000000000
     38483      4723  TIP3      OH2            32.6604480757      -17.3283833869       38.8809167940  TIP3      4523            0.0000000000
     38484      4723  TIP3      H1             33.2520132353      -17.7715619229       39.5163526255  TIP3      4523            0.0000000000
     38485      4723  TIP3      H2             31.7970095705      -17.7471935604       39.0312946762  TIP3      4523            0.0000000000
     38486      4724  TIP3      OH2            32.2120018828      -15.8030758568       43.8084836610  TIP3      4524            0.0000000000
     38487      4724  TIP3      H1             32.5291968742      -16.7211122420       43.9821466350  TIP3      4524            0.0000000000
     38488      4724  TIP3      H2             33.0415074456      -15.3989815429       43.5224844622  TIP3      4524            0.0000000000
     38489      4725  TIP3      OH2            32.8485809511      -15.1322691306       48.8702782224  TIP3      4525            0.0000000000
     38490      4725  TIP3      H1             33.8079966384      -15.1087094893       49.0665412676  TIP3      4525            0.0000000000
     38491      4725  TIP3      H2             32.4835272515      -15.2081761895       49.7778493316  TIP3      4525            0.0000000000
     38492      4726  TIP3      OH2            32.8853575545      -18.4990188884       43.9128639769  TIP3      4526            0.0000000000
     38493      4726  TIP3      H1             33.1183008532      -18.9397437210       44.7622901233  TIP3      4526            0.0000000000
     38494      4726  TIP3      H2             32.3056446128      -19.1520898852       43.4725274199  TIP3      4526            0.0000000000
     38495      4727  TIP3      OH2            18.3687297365      -17.6949101586       48.4644535326  TIP3      4527            0.0000000000
     38496      4727  TIP3      H1             18.8193864963      -18.5312214596       48.7081092877  TIP3      4527            0.0000000000
     38497      4727  TIP3      H2             18.9359015720      -17.0297407697       48.8912859409  TIP3      4527            0.0000000000
     38498      4728  TIP3      OH2            16.6680146604      -14.7284506634       49.5169453719  TIP3      4528            0.0000000000
     38499      4728  TIP3      H1             17.2035165364      -14.9623982399       48.7271754125  TIP3      4528            0.0000000000
     38500      4728  TIP3      H2             17.1130324072      -13.8943186946       49.7456079538  TIP3      4528            0.0000000000
     38501      4729  TIP3      OH2            34.7177719635      -18.4843743840       40.4781637533  TIP3      4529            0.0000000000
     38502      4729  TIP3      H1             35.1193989571      -19.1906060298       39.9253181785  TIP3      4529            0.0000000000
     38503      4729  TIP3      H2             35.4136186233      -17.8113342301       40.5034854545  TIP3      4529            0.0000000000
     38504      4730  TIP3      OH2            17.0419242346      -18.4244044240       43.5898474815  TIP3      4530            0.0000000000
     38505      4730  TIP3      H1             16.0986966429      -18.2694846019       43.4228874868  TIP3      4530            0.0000000000
     38506      4730  TIP3      H2             17.4609001083      -17.9510053310       42.8517844725  TIP3      4530            0.0000000000
     38507      4731  TIP3      OH2            31.7849697033       -3.4886512795       45.5230668172  TIP3      4531            0.0000000000
     38508      4731  TIP3      H1             32.4596381456       -3.7924408262       44.8885302611  TIP3      4531            0.0000000000
     38509      4731  TIP3      H2             32.3023263850       -2.9772630992       46.1653310645  TIP3      4531            0.0000000000
     38510      4732  TIP3      OH2            18.8015852781       -3.8846759999       48.9872336916  TIP3      4532            0.0000000000
     38511      4732  TIP3      H1             18.8766376694       -3.9725347715       49.9469035431  TIP3      4532            0.0000000000
     38512      4732  TIP3      H2             19.7407774386       -3.9967272640       48.7755771258  TIP3      4532            0.0000000000
     38513      4733  TIP3      OH2            21.1434540592       -5.0318619641       47.8235559615  TIP3      4533            0.0000000000
     38514      4733  TIP3      H1             20.8604322368       -5.9204924306       48.1354050629  TIP3      4533            0.0000000000
     38515      4733  TIP3      H2             21.8229861809       -4.7865767313       48.4793793081  TIP3      4533            0.0000000000
     38516      4734  TIP3      OH2            23.6352173565       -4.4763659010       48.8768375470  TIP3      4534            0.0000000000
     38517      4734  TIP3      H1             23.9936525804       -5.3634972983       48.7737885201  TIP3      4534            0.0000000000
     38518      4734  TIP3      H2             23.6789400604       -4.4616966489       49.8374823546  TIP3      4534            0.0000000000
     38519      4735  TIP3      OH2            27.1482771010      -18.7986815041       47.9006567662  TIP3      4535            0.0000000000
     38520      4735  TIP3      H1             26.5052245035      -19.4553313483       48.2336891624  TIP3      4535            0.0000000000
     38521      4735  TIP3      H2             27.7191142477      -19.3802132959       47.3823153014  TIP3      4535            0.0000000000
     38522      4736  TIP3      OH2            32.2957624297      -20.7530032065       47.9943938392  TIP3      4536            0.0000000000
     38523      4736  TIP3      H1             32.8899607948      -20.1723541549       47.4688240901  TIP3      4536            0.0000000000
     38524      4736  TIP3      H2             31.4018529412      -20.4090307693       47.7887781789  TIP3      4536            0.0000000000
     38525      4737  TIP3      OH2            33.9837267084      -19.5454010068       46.2831849039  TIP3      4537            0.0000000000
     38526      4737  TIP3      H1             34.6338021351      -20.1375617881       45.8390099568  TIP3      4537            0.0000000000
     38527      4737  TIP3      H2             34.4794389606      -18.7027871204       46.3605360839  TIP3      4537            0.0000000000
     38528      4738  TIP3      OH2            19.5171246295      -20.2259378392       45.7091307440  TIP3      4538            0.0000000000
     38529      4738  TIP3      H1             18.7112036515      -20.4398249003       45.2122365285  TIP3      4538            0.0000000000
     38530      4738  TIP3      H2             19.9812464595      -21.0866933569       45.7177608014  TIP3      4538            0.0000000000
     38531      4739  TIP3      OH2            18.2947014046      -20.4660283401       41.4786497760  TIP3      4539            0.0000000000
     38532      4739  TIP3      H1             18.8003357792      -19.8041744674       40.9574000915  TIP3      4539            0.0000000000
     38533      4739  TIP3      H2             17.7244717184      -19.9013676744       42.0237706560  TIP3      4539            0.0000000000
     38534      4740  TIP3      OH2            23.9953021505      -20.3337809175       45.5588453379  TIP3      4540            0.0000000000
     38535      4740  TIP3      H1             24.8804752354      -19.9420691491       45.4718297612  TIP3      4540            0.0000000000
     38536      4740  TIP3      H2             23.9586458666      -20.5308152154       46.4950450233  TIP3      4540            0.0000000000
     38537      4741  TIP3      OH2            29.7176011302      -20.2740698003       47.1571099816  TIP3      4541            0.0000000000
     38538      4741  TIP3      H1             29.6596758764      -20.1640370399       46.2081821106  TIP3      4541            0.0000000000
     38539      4741  TIP3      H2             29.3118920820      -21.1600512169       47.3082972870  TIP3      4541            0.0000000000
     38540      4742  TIP3      OH2            30.9763300276      -20.2391811925       42.8706770751  TIP3      4542            0.0000000000
     38541      4742  TIP3      H1             30.2106387138      -19.6738286521       42.7054661097  TIP3      4542            0.0000000000
     38542      4742  TIP3      H2             30.5376857435      -21.1019679953       43.1043281691  TIP3      4542            0.0000000000
     38543      4743  TIP3      OH2            18.1997599318       -4.5299778947       42.5239613305  TIP3      4543            0.0000000000
     38544      4743  TIP3      H1             17.5442386362       -4.5434505457       41.8020186907  TIP3      4543            0.0000000000
     38545      4743  TIP3      H2             18.1978432668       -3.5741404769       42.6916625032  TIP3      4543            0.0000000000
     38546      4744  TIP3      OH2            20.0894646544      -18.5892785984       40.0245302042  TIP3      4544            0.0000000000
     38547      4744  TIP3      H1             20.6621366775      -19.1256492733       39.4565162075  TIP3      4544            0.0000000000
     38548      4744  TIP3      H2             20.7724324284      -18.1630982158       40.5876072406  TIP3      4544            0.0000000000
     38549      4745  TIP3      OH2            25.1576262960      -18.2856267140       42.4005852056  TIP3      4545            0.0000000000
     38550      4745  TIP3      H1             25.3879855634      -18.8611374823       43.1477247269  TIP3      4545            0.0000000000
     38551      4745  TIP3      H2             25.1979499896      -17.4168407088       42.8534843794  TIP3      4545            0.0000000000
     38552      4746  TIP3      OH2            27.0758529953       -3.2136459275       40.8547658492  TIP3      4546            0.0000000000
     38553      4746  TIP3      H1             27.9933091628       -2.9896088245       40.6303235604  TIP3      4546            0.0000000000
     38554      4746  TIP3      H2             26.8538459628       -3.7346366418       40.0538365641  TIP3      4546            0.0000000000
     38555      4747  TIP3      OH2            33.7864525333       -3.7118128164       43.5714148616  TIP3      4547            0.0000000000
     38556      4747  TIP3      H1             33.5961947678       -4.4987652301       43.0093330388  TIP3      4547            0.0000000000
     38557      4747  TIP3      H2             33.6990123976       -2.9806065756       42.9279155020  TIP3      4547            0.0000000000
     38558      4748  TIP3      OH2            19.9930950471       -3.5383359203       39.4501910008  TIP3      4548            0.0000000000
     38559      4748  TIP3      H1             19.7316688232       -3.2817752850       40.3471067727  TIP3      4548            0.0000000000
     38560      4748  TIP3      H2             20.7751940149       -4.1032326648       39.6117999869  TIP3      4548            0.0000000000
     38561      4749  TIP3      OH2           -40.4137287851       -8.2157818516       49.4676050844  TIP3      4549            0.0000000000
     38562      4749  TIP3      H1            -40.6255247723       -8.8110325070       48.7230022972  TIP3      4549            0.0000000000
     38563      4749  TIP3      H2            -39.5331306023       -7.9232041402       49.1931576032  TIP3      4549            0.0000000000
     38564      4750  TIP3      OH2            36.2007545507      -14.1985929758       44.6521719300  TIP3      4550            0.0000000000
     38565      4750  TIP3      H1             35.8070945383      -13.3027484254       44.5879945380  TIP3      4550            0.0000000000
     38566      4750  TIP3      H2             35.6126686926      -14.7008173317       44.0856040907  TIP3      4550            0.0000000000
     38567      4751  TIP3      OH2            36.9393885310      -11.9353989453       46.7736689811  TIP3      4551            0.0000000000
     38568      4751  TIP3      H1             37.1911120973      -12.7480870428       47.2538363287  TIP3      4551            0.0000000000
     38569      4751  TIP3      H2             37.6757571650      -11.8371767183       46.1506320120  TIP3      4551            0.0000000000
     38570      4752  TIP3      OH2            37.5956758104      -14.5066887302       47.8393615811  TIP3      4552            0.0000000000
     38571      4752  TIP3      H1             38.2962168043      -14.9871290146       48.3310976196  TIP3      4552            0.0000000000
     38572      4752  TIP3      H2             37.7523461872      -14.8162151811       46.9275509144  TIP3      4552            0.0000000000
     38573      4753  TIP3      OH2            39.3376478157      -16.5555052128       49.1149038231  TIP3      4553            0.0000000000
     38574      4753  TIP3      H1             39.7618099488      -15.8055168611       49.5674377477  TIP3      4553            0.0000000000
     38575      4753  TIP3      H2             39.9392273754      -16.7214719933       48.3736492324  TIP3      4553            0.0000000000
     38576      4754  TIP3      OH2            36.9740786095       -8.7180306764       42.9973429546  TIP3      4554            0.0000000000
     38577      4754  TIP3      H1             36.6587669943       -8.3655598317       42.1544389125  TIP3      4554            0.0000000000
     38578      4754  TIP3      H2             37.0305052966       -7.8909510999       43.5279933925  TIP3      4554            0.0000000000
     38579      4755  TIP3      OH2            36.0736789109       -6.6181354457       49.0410389856  TIP3      4555            0.0000000000
     38580      4755  TIP3      H1             36.9611142750       -6.9340756489       49.2471145293  TIP3      4555            0.0000000000
     38581      4755  TIP3      H2             35.8828716776       -5.9780013732       49.7332590850  TIP3      4555            0.0000000000
     38582      4756  TIP3      OH2            39.0192682801       -4.4109385147       45.2509558129  TIP3      4556            0.0000000000
     38583      4756  TIP3      H1             39.3268701846       -4.3910759728       46.1830659993  TIP3      4556            0.0000000000
     38584      4756  TIP3      H2             38.0685541905       -4.4543792061       45.2893406066  TIP3      4556            0.0000000000
     38585      4757  TIP3      OH2            35.5808775479      -17.3636828754       46.2672636637  TIP3      4557            0.0000000000
     38586      4757  TIP3      H1             36.2584921589      -17.4377216641       46.9784763879  TIP3      4557            0.0000000000
     38587      4757  TIP3      H2             36.0226310629      -17.7945305262       45.5156560154  TIP3      4557            0.0000000000
     38588      4758  TIP3      OH2            36.8177948578      -16.7110683837       41.6237606991  TIP3      4558            0.0000000000
     38589      4758  TIP3      H1             37.3302090711      -16.0841114666       41.0763416537  TIP3      4558            0.0000000000
     38590      4758  TIP3      H2             36.1496940630      -16.0904759080       41.9876503559  TIP3      4558            0.0000000000
     38591      4759  TIP3      OH2            38.5644809479      -15.4220731473       45.2139827007  TIP3      4559            0.0000000000
     38592      4759  TIP3      H1             37.6261499807      -15.4314147259       44.9852220607  TIP3      4559            0.0000000000
     38593      4759  TIP3      H2             38.8849350889      -16.3430693245       45.1386943656  TIP3      4559            0.0000000000
     38594      4760  TIP3      OH2            39.1886429859      -10.4126734730       48.0547653209  TIP3      4560            0.0000000000
     38595      4760  TIP3      H1             40.0396077049      -10.3927275277       47.5866552772  TIP3      4560            0.0000000000
     38596      4760  TIP3      H2             39.3938668962      -11.1139363411       48.7130369118  TIP3      4560            0.0000000000
     38597      4761  TIP3      OH2            37.5726002033      -12.1001074581       40.2517025302  TIP3      4561            0.0000000000
     38598      4761  TIP3      H1             38.1344791269      -11.4334327286       40.6994339466  TIP3      4561            0.0000000000
     38599      4761  TIP3      H2             36.6598151053      -11.8110992441       40.4937419376  TIP3      4561            0.0000000000
     38600      4762  TIP3      OH2            38.9638876037      -10.1835370184       41.6743736351  TIP3      4562            0.0000000000
     38601      4762  TIP3      H1             38.3180225309       -9.8594967173       42.3422730425  TIP3      4562            0.0000000000
     38602      4762  TIP3      H2             39.4363868780       -9.3667232132       41.5033102625  TIP3      4562            0.0000000000
     38603      4763  TIP3      OH2            39.2684877903       -7.4943681578       40.7196463894  TIP3      4563            0.0000000000
     38604      4763  TIP3      H1             39.9788949523       -6.8856355404       40.9824451182  TIP3      4563            0.0000000000
     38605      4763  TIP3      H2             39.8380977447       -7.9568469581       40.0708468202  TIP3      4563            0.0000000000
     38606      4764  TIP3      OH2            37.8923932829      -14.8592510144       39.7825630818  TIP3      4564            0.0000000000
     38607      4764  TIP3      H1             37.8540236256      -13.8978084185       39.9535483828  TIP3      4564            0.0000000000
     38608      4764  TIP3      H2             37.0159928561      -15.0487925899       39.4297300207  TIP3      4564            0.0000000000
     38609      4765  TIP3      OH2            38.6899948275      -20.1251051472       48.5197822152  TIP3      4565            0.0000000000
     38610      4765  TIP3      H1             38.4867883104      -20.0305175257       47.5634472774  TIP3      4565            0.0000000000
     38611      4765  TIP3      H2             38.2522728951      -20.9437183943       48.7462328998  TIP3      4565            0.0000000000
     38612      4766  TIP3      OH2            37.4841187830       -6.3138539514       44.5355799767  TIP3      4566            0.0000000000
     38613      4766  TIP3      H1             36.7359964203       -5.7029173441       44.5583214430  TIP3      4566            0.0000000000
     38614      4766  TIP3      H2             38.1343892409       -5.7699600577       44.0349472807  TIP3      4566            0.0000000000
     38615      4767  TIP3      OH2            36.7629054889       -7.8511263797       40.0727409452  TIP3      4567            0.0000000000
     38616      4767  TIP3      H1             37.7163423370       -7.7946942952       40.3207500271  TIP3      4567            0.0000000000
     38617      4767  TIP3      H2             36.8112631182       -8.5585439494       39.3922594169  TIP3      4567            0.0000000000
     38618      4768  TIP3      OH2            35.5348139680       -2.5059497390       45.0928121010  TIP3      4568            0.0000000000
     38619      4768  TIP3      H1             34.8261805731       -3.0110655808       44.6347663768  TIP3      4568            0.0000000000
     38620      4768  TIP3      H2             35.8246635449       -3.1618103290       45.7590004365  TIP3      4568            0.0000000000
     38621      4769  TIP3      OH2            36.3048471434       -4.3781282102       46.8790734494  TIP3      4569            0.0000000000
     38622      4769  TIP3      H1             36.0524298963       -5.2800799716       47.1267865523  TIP3      4569            0.0000000000
     38623      4769  TIP3      H2             36.6322567350       -4.0607162940       47.7603922284  TIP3      4569            0.0000000000
     38624      4770  TIP3      OH2            36.4376602785      -11.2280196472       49.3249213945  TIP3      4570            0.0000000000
     38625      4770  TIP3      H1             36.6546781124      -11.4089680703       48.3920346026  TIP3      4570            0.0000000000
     38626      4770  TIP3      H2             37.2553051799      -11.4726003459       49.7933398100  TIP3      4570            0.0000000000
     38627      4771  TIP3      OH2            37.1501203844      -17.7381514250       48.5169046330  TIP3      4571            0.0000000000
     38628      4771  TIP3      H1             37.7127042592      -18.5267727948       48.6654066686  TIP3      4571            0.0000000000
     38629      4771  TIP3      H2             37.7674292457      -17.0571551843       48.8550587754  TIP3      4571            0.0000000000
     38630      4772  TIP3      OH2            35.5616332125      -14.7505141471       49.5182227643  TIP3      4572            0.0000000000
     38631      4772  TIP3      H1             36.1017059128      -14.9530469811       48.7203268604  TIP3      4572            0.0000000000
     38632      4772  TIP3      H2             35.9377995974      -13.8826188931       49.7400796502  TIP3      4572            0.0000000000
     38633      4773  TIP3      OH2            35.9215166022      -18.4483195637       43.5695463045  TIP3      4573            0.0000000000
     38634      4773  TIP3      H1             34.9767787467      -18.2709061665       43.4296805551  TIP3      4573            0.0000000000
     38635      4773  TIP3      H2             36.3351514861      -17.9549916157       42.8444139528  TIP3      4573            0.0000000000
     38636      4774  TIP3      OH2            37.6050447631       -3.8989956042       48.9949165087  TIP3      4574            0.0000000000
     38637      4774  TIP3      H1             37.7361126817       -3.9790794095       49.9485167766  TIP3      4574            0.0000000000
     38638      4774  TIP3      H2             38.5400883767       -3.9760449573       48.7787101541  TIP3      4574            0.0000000000
     38639      4775  TIP3      OH2            38.0511454120      -20.1787418670       45.8815810035  TIP3      4575            0.0000000000
     38640      4775  TIP3      H1             37.4334774235      -20.4120380808       45.1757294903  TIP3      4575            0.0000000000
     38641      4775  TIP3      H2             38.7867066035      -20.8040967505       45.7914994558  TIP3      4575            0.0000000000
     38642      4776  TIP3      OH2            37.1333598789      -20.4675318266       41.4962594625  TIP3      4576            0.0000000000
     38643      4776  TIP3      H1             37.6161775549      -19.8190102731       40.9484414180  TIP3      4576            0.0000000000
     38644      4776  TIP3      H2             36.5589005243      -19.8958042272       42.0325458069  TIP3      4576            0.0000000000
     38645      4777  TIP3      OH2            37.0312175202       -4.5337242487       42.4954073034  TIP3      4577            0.0000000000
     38646      4777  TIP3      H1             36.3730195236       -4.5299315055       41.7813185772  TIP3      4577            0.0000000000
     38647      4777  TIP3      H2             37.0539878672       -3.5854800018       42.6841563196  TIP3      4577            0.0000000000
     38648      4778  TIP3      OH2            38.9893342997      -18.5154792803       40.0554817301  TIP3      4578            0.0000000000
     38649      4778  TIP3      H1             39.5086888443      -19.1350912628       39.5230751164  TIP3      4578            0.0000000000
     38650      4778  TIP3      H2             39.6497789907      -18.1524154225       40.6532741100  TIP3      4578            0.0000000000
     38651      4779  TIP3      OH2            38.8325224838       -3.5930238541       39.4560543504  TIP3      4579            0.0000000000
     38652      4779  TIP3      H1             38.5881575883       -3.2212326364       40.3209121354  TIP3      4579            0.0000000000
     38653      4779  TIP3      H2             39.6549173545       -4.0576340878       39.6434819513  TIP3      4579            0.0000000000
     38654      4780  TIP3      OH2           -27.9207745489        7.7706545830       45.5842955743  TIP3      4580            0.0000000000
     38655      4780  TIP3      H1            -27.9832413562        8.7508224707       45.6078806041  TIP3      4580            0.0000000000
     38656      4780  TIP3      H2            -28.7011597652        7.5347931933       45.0489337821  TIP3      4580            0.0000000000
     38657      4781  TIP3      OH2           -29.0888713454        7.0220533619       49.1379965124  TIP3      4581            0.0000000000
     38658      4781  TIP3      H1            -29.1633553622        6.3782829210       49.8659590986  TIP3      4581            0.0000000000
     38659      4781  TIP3      H2            -29.3981301972        6.5414692001       48.3570994239  TIP3      4581            0.0000000000
     38660      4782  TIP3      OH2           -25.4760992388        9.8958316846       47.3411095337  TIP3      4582            0.0000000000
     38661      4782  TIP3      H1            -25.8709175658        9.2226089042       47.9269099315  TIP3      4582            0.0000000000
     38662      4782  TIP3      H2            -25.3659370360       10.6084046102       48.0369681015  TIP3      4582            0.0000000000
     38663      4783  TIP3      OH2           -35.8463896845       11.2071667333       49.0623221518  TIP3      4583            0.0000000000
     38664      4783  TIP3      H1            -36.1303481138       10.2989030340       48.8571433727  TIP3      4583            0.0000000000
     38665      4783  TIP3      H2            -34.8986740058       10.9979335553       49.2195183864  TIP3      4583            0.0000000000
     38666      4784  TIP3      OH2           -39.0763751799        4.7781116749       44.5091558740  TIP3      4584            0.0000000000
     38667      4784  TIP3      H1            -39.5897524969        5.5867305084       44.6469489150  TIP3      4584            0.0000000000
     38668      4784  TIP3      H2            -39.7891400231        4.1652037306       44.2499162758  TIP3      4584            0.0000000000
     38669      4785  TIP3      OH2           -38.4569392023        6.9656437943       46.8048741127  TIP3      4585            0.0000000000
     38670      4785  TIP3      H1            -38.2541331150        6.1227634930       47.2463469847  TIP3      4585            0.0000000000
     38671      4785  TIP3      H2            -37.7452740104        7.0400131795       46.1541665844  TIP3      4585            0.0000000000
     38672      4786  TIP3      OH2           -28.3004839823       15.1400479874       47.6907027340  TIP3      4586            0.0000000000
     38673      4786  TIP3      H1            -27.6509551994       14.4656615089       47.3653054284  TIP3      4586            0.0000000000
     38674      4786  TIP3      H2            -28.4932554150       14.7953847776       48.5623828088  TIP3      4586            0.0000000000
     38675      4787  TIP3      OH2           -30.6764886721        9.4800066029       49.5628122803  TIP3      4587            0.0000000000
     38676      4787  TIP3      H1            -30.3378539172        8.7878078850       48.9730110119  TIP3      4587            0.0000000000
     38677      4787  TIP3      H2            -29.9240731990        9.5492795295       50.1582276503  TIP3      4587            0.0000000000
     38678      4788  TIP3      OH2           -27.5315137448        3.8862305772       49.8918182979  TIP3      4588            0.0000000000
     38679      4788  TIP3      H1            -27.4071382533        2.9228832816       49.9033406898  TIP3      4588            0.0000000000
     38680      4788  TIP3      H2            -27.6447892907        4.0337018378       48.9282951186  TIP3      4588            0.0000000000
     38681      4789  TIP3      OH2           -34.4601455178        1.9597793086       47.1221467605  TIP3      4589            0.0000000000
     38682      4789  TIP3      H1            -34.3252126180        2.8051073570       46.6482649921  TIP3      4589            0.0000000000
     38683      4789  TIP3      H2            -34.8462632635        1.4096990375       46.4076013232  TIP3      4589            0.0000000000
     38684      4790  TIP3      OH2           -26.7354613687        2.0617622343       45.4808705920  TIP3      4590            0.0000000000
     38685      4790  TIP3      H1            -26.0930070814        1.7407826699       46.1600695039  TIP3      4590            0.0000000000
     38686      4790  TIP3      H2            -26.1477176526        2.6236965751       44.9613176142  TIP3      4590            0.0000000000
     38687      4791  TIP3      OH2           -37.8194506817        4.3565107670       47.8624550387  TIP3      4591            0.0000000000
     38688      4791  TIP3      H1            -37.1393421850        3.8277110365       48.3079557293  TIP3      4591            0.0000000000
     38689      4791  TIP3      H2            -37.7256083858        4.0548643509       46.9460733105  TIP3      4591            0.0000000000
     38690      4792  TIP3      OH2           -32.6643731463        5.9228573507       47.1630794524  TIP3      4592            0.0000000000
     38691      4792  TIP3      H1            -31.9899398717        5.3417517981       47.5652283442  TIP3      4592            0.0000000000
     38692      4792  TIP3      H2            -33.1861490999        5.2792346410       46.6432743323  TIP3      4592            0.0000000000
     38693      4793  TIP3      OH2           -28.2283979498       10.3609275204       44.7209397224  TIP3      4593            0.0000000000
     38694      4793  TIP3      H1            -28.5279480366       10.0855006852       43.8457226953  TIP3      4593            0.0000000000
     38695      4793  TIP3      H2            -28.5539122044       11.2890528640       44.7861407355  TIP3      4593            0.0000000000
     38696      4794  TIP3      OH2           -24.9594122688        1.4059667612       47.4631980218  TIP3      4594            0.0000000000
     38697      4794  TIP3      H1            -25.1333908078        0.6560256113       48.0491436515  TIP3      4594            0.0000000000
     38698      4794  TIP3      H2            -24.2724498370        1.8407449287       48.0033935080  TIP3      4594            0.0000000000
     38699      4795  TIP3      OH2           -35.9338313074        2.6760668466       49.1708300984  TIP3      4595            0.0000000000
     38700      4795  TIP3      H1            -35.4337201275        3.4461558700       49.4587043800  TIP3      4595            0.0000000000
     38701      4795  TIP3      H2            -35.4339113009        2.3585218651       48.3866015621  TIP3      4595            0.0000000000
     38702      4796  TIP3      OH2           -38.4296636485       10.1833294470       42.9627180218  TIP3      4596            0.0000000000
     38703      4796  TIP3      H1            -38.7876899551       10.4993955971       42.1359768403  TIP3      4596            0.0000000000
     38704      4796  TIP3      H2            -38.4474618963       10.9745122129       43.5300591155  TIP3      4596            0.0000000000
     38705      4797  TIP3      OH2           -24.8456155304       11.5197890701       49.2691083193  TIP3      4597            0.0000000000
     38706      4797  TIP3      H1            -25.6291906237       11.6359477761       49.8520977773  TIP3      4597            0.0000000000
     38707      4797  TIP3      H2            -24.4820834528       12.3941583714       49.4577131908  TIP3      4597            0.0000000000
     38708      4798  TIP3      OH2           -31.5593241460       -1.7653972657       48.5891237681  TIP3      4598            0.0000000000
     38709      4798  TIP3      H1            -31.6492875823       -2.7359121826       48.5463677314  TIP3      4598            0.0000000000
     38710      4798  TIP3      H2            -32.4334076350       -1.4558221771       48.8941980007  TIP3      4598            0.0000000000
     38711      4799  TIP3      OH2           -26.6711687882       13.6073876915       46.3534801242  TIP3      4599            0.0000000000
     38712      4799  TIP3      H1            -26.2224310200       12.8915856450       45.8575053872  TIP3      4599            0.0000000000
     38713      4799  TIP3      H2            -26.2094782241       14.3952322615       45.9960569569  TIP3      4599            0.0000000000
     38714      4800  TIP3      OH2           -25.4009178654       11.5327605622       44.9083167356  TIP3      4600            0.0000000000
     38715      4800  TIP3      H1            -25.7332176725       10.8473179471       44.3078264242  TIP3      4600            0.0000000000
     38716      4800  TIP3      H2            -25.3951286490       11.0603984255       45.7586617254  TIP3      4600            0.0000000000
     38717      4801  TIP3      OH2           -29.2857138384        7.0153184740       43.1480204963  TIP3      4601            0.0000000000
     38718      4801  TIP3      H1            -29.9971754033        7.5761480896       42.7875670985  TIP3      4601            0.0000000000
     38719      4801  TIP3      H2            -28.6097523395        7.0925641671       42.4549110975  TIP3      4601            0.0000000000
     38720      4802  TIP3      OH2           -29.2248743499        5.5728484870       40.1469460357  TIP3      4602            0.0000000000
     38721      4802  TIP3      H1            -28.5199458574        5.5503029296       40.8112197085  TIP3      4602            0.0000000000
     38722      4802  TIP3      H2            -28.9308214289        4.8508812918       39.5736449303  TIP3      4602            0.0000000000
     38723      4803  TIP3      OH2           -25.7426614380        7.2860397161       44.1618995917  TIP3      4603            0.0000000000
     38724      4803  TIP3      H1            -26.6222135802        7.4555069629       44.6126246528  TIP3      4603            0.0000000000
     38725      4803  TIP3      H2            -25.4961414123        6.4365778855       44.5655274141  TIP3      4603            0.0000000000
     38726      4804  TIP3      OH2           -34.2540193646        7.8764280726       45.9838817402  TIP3      4604            0.0000000000
     38727      4804  TIP3      H1            -34.5835955481        7.4926572022       45.1360924307  TIP3      4604            0.0000000000
     38728      4804  TIP3      H2            -33.6183165062        7.1904866091       46.2756609585  TIP3      4604            0.0000000000
     38729      4805  TIP3      OH2           -32.8409259391       11.3254730782       48.6139597246  TIP3      4605            0.0000000000
     38730      4805  TIP3      H1            -32.9243066879       10.7427788448       47.8482471464  TIP3      4605            0.0000000000
     38731      4805  TIP3      H2            -32.1371979913       10.8912895478       49.1247919210  TIP3      4605            0.0000000000
     38732      4806  TIP3      OH2           -34.0424836331        6.7157518888       49.4856157570  TIP3      4606            0.0000000000
     38733      4806  TIP3      H1            -33.3931321235        6.7695917961       48.7682115305  TIP3      4606            0.0000000000
     38734      4806  TIP3      H2            -33.5756474885        7.1638212281       50.2059113056  TIP3      4606            0.0000000000
     38735      4807  TIP3      OH2           -26.9718247394        6.4370105593       41.7464609534  TIP3      4607            0.0000000000
     38736      4807  TIP3      H1            -26.4139755966        6.5948850130       42.5296419883  TIP3      4607            0.0000000000
     38737      4807  TIP3      H2            -26.5368114994        6.9062082950       40.9952563522  TIP3      4607            0.0000000000
     38738      4808  TIP3      OH2           -29.2732023991       13.1217643021       45.1851705008  TIP3      4608            0.0000000000
     38739      4808  TIP3      H1            -28.8373407154       13.4371479700       45.9856152112  TIP3      4608            0.0000000000
     38740      4808  TIP3      H2            -29.8278328121       13.8770791694       44.9505710385  TIP3      4608            0.0000000000
     38741      4809  TIP3      OH2           -23.2529237725       -1.8550744894       41.6364489581  TIP3      4609            0.0000000000
     38742      4809  TIP3      H1            -24.2019652835       -1.7435958182       41.8712025931  TIP3      4609            0.0000000000
     38743      4809  TIP3      H2            -23.0552344294       -1.0139890854       41.1885022123  TIP3      4609            0.0000000000
     38744      4810  TIP3      OH2           -35.2708934012        6.8955007004       43.5896329250  TIP3      4610            0.0000000000
     38745      4810  TIP3      H1            -35.5774433945        7.6750066482       43.0786107224  TIP3      4610            0.0000000000
     38746      4810  TIP3      H2            -35.9288902117        6.2333286599       43.3702019957  TIP3      4610            0.0000000000
     38747      4811  TIP3      OH2           -22.1433885978       12.5024218708       39.9646401222  TIP3      4611            0.0000000000
     38748      4811  TIP3      H1            -21.9727889404       13.4400108684       40.1558191618  TIP3      4611            0.0000000000
     38749      4811  TIP3      H2            -21.2224632759       12.1727668108       40.0128246638  TIP3      4611            0.0000000000
     38750      4812  TIP3      OH2           -38.9493315775       12.6785775307       49.0182537994  TIP3      4612            0.0000000000
     38751      4812  TIP3      H1            -38.3202693375       12.0132852239       49.3353174908  TIP3      4612            0.0000000000
     38752      4812  TIP3      H2            -39.4808009162       12.8154351464       49.8039247056  TIP3      4612            0.0000000000
     38753      4813  TIP3      OH2           -29.7839628390       16.0438181650       43.6119557149  TIP3      4613            0.0000000000
     38754      4813  TIP3      H1            -29.8991326196       15.9688896517       42.6482173480  TIP3      4613            0.0000000000
     38755      4813  TIP3      H2            -29.7866570723       17.0052504242       43.7676838917  TIP3      4613            0.0000000000
     38756      4814  TIP3      OH2           -36.1516741051       14.9239667318       45.4085674084  TIP3      4614            0.0000000000
     38757      4814  TIP3      H1            -35.9872293726       14.5153097022       46.2880056835  TIP3      4614            0.0000000000
     38758      4814  TIP3      H2            -36.9986151929       14.5129799177       45.1910794203  TIP3      4614            0.0000000000
     38759      4815  TIP3      OH2           -26.7327487470       15.2631030852       40.5863255496  TIP3      4615            0.0000000000
     38760      4815  TIP3      H1            -26.2777698177       14.5069296936       40.1544762425  TIP3      4615            0.0000000000
     38761      4815  TIP3      H2            -26.6943243627       15.0041434668       41.5352023194  TIP3      4615            0.0000000000
     38762      4816  TIP3      OH2           -27.0377521511       15.1962379249       43.3686977123  TIP3      4616            0.0000000000
     38763      4816  TIP3      H1            -27.9993431379       15.2706102347       43.5388856516  TIP3      4616            0.0000000000
     38764      4816  TIP3      H2            -26.8061933811       14.4561885244       43.9495197601  TIP3      4616            0.0000000000
     38765      4817  TIP3      OH2           -34.0068227138       -0.7799617744       49.3829968278  TIP3      4617            0.0000000000
     38766      4817  TIP3      H1            -34.6704308378       -0.7887808386       48.6747645323  TIP3      4617            0.0000000000
     38767      4817  TIP3      H2            -34.1205806952        0.0813637791       49.8266397371  TIP3      4617            0.0000000000
     38768      4818  TIP3      OH2           -25.5103757345        7.4374669239       39.5755975533  TIP3      4618            0.0000000000
     38769      4818  TIP3      H1            -25.5596426173        7.2551973896       38.6077280460  TIP3      4618            0.0000000000
     38770      4818  TIP3      H2            -24.6616806256        7.8998448180       39.5785052452  TIP3      4618            0.0000000000
     38771      4819  TIP3      OH2           -29.9365722356        1.3707912487       40.0528654873  TIP3      4619            0.0000000000
     38772      4819  TIP3      H1            -30.2565783911        1.3080767938       40.9709472199  TIP3      4619            0.0000000000
     38773      4819  TIP3      H2            -30.2446042840        0.4935749160       39.7465714756  TIP3      4619            0.0000000000
     38774      4820  TIP3      OH2           -34.1594420002        4.2105183485       45.4757553231  TIP3      4620            0.0000000000
     38775      4820  TIP3      H1            -35.0969503244        3.9616956415       45.3512672790  TIP3      4620            0.0000000000
     38776      4820  TIP3      H2            -33.7914175228        3.9162456145       44.6186271339  TIP3      4620            0.0000000000
     38777      4821  TIP3      OH2           -28.6226635875        4.7279313545       44.2730764788  TIP3      4621            0.0000000000
     38778      4821  TIP3      H1            -29.0391005787        5.5412243770       43.9080747963  TIP3      4621            0.0000000000
     38779      4821  TIP3      H2            -27.9608372510        4.5282218165       43.5933700724  TIP3      4621            0.0000000000
     38780      4822  TIP3      OH2           -27.6310555937        4.1793902636       47.1248279298  TIP3      4622            0.0000000000
     38781      4822  TIP3      H1            -27.8869995556        4.7521974408       46.3783412629  TIP3      4622            0.0000000000
     38782      4822  TIP3      H2            -27.4906692201        3.3476987842       46.6234086087  TIP3      4622            0.0000000000
     38783      4823  TIP3      OH2           -33.1224995768        1.7364618077       39.1691129982  TIP3      4623            0.0000000000
     38784      4823  TIP3      H1            -33.5804122187        1.3160540459       39.9285138249  TIP3      4623            0.0000000000
     38785      4823  TIP3      H2            -33.8372252899        2.1677833501       38.6797272441  TIP3      4623            0.0000000000
     38786      4824  TIP3      OH2           -39.8418058677        1.4577819912       46.1976419152  TIP3      4624            0.0000000000
     38787      4824  TIP3      H1            -39.2135328404        1.4030307686       46.9441100711  TIP3      4624            0.0000000000
     38788      4824  TIP3      H2            -39.3962107765        0.9551212799       45.5072129773  TIP3      4624            0.0000000000
     38789      4825  TIP3      OH2           -38.5568224987        2.2161740277       41.6699850730  TIP3      4625            0.0000000000
     38790      4825  TIP3      H1            -38.0447707203        2.8221296211       41.0928131925  TIP3      4625            0.0000000000
     38791      4825  TIP3      H2            -39.2478513355        2.7829109078       42.0090199511  TIP3      4625            0.0000000000
     38792      4826  TIP3      OH2           -31.5837489046        1.8161949992       46.5081994037  TIP3      4626            0.0000000000
     38793      4826  TIP3      H1            -32.5166637148        1.7748727604       46.7791412644  TIP3      4626            0.0000000000
     38794      4826  TIP3      H2            -31.1051391735        1.5880665246       47.3183279207  TIP3      4626            0.0000000000
     38795      4827  TIP3      OH2           -36.7719263518        3.3063985645       45.3703861127  TIP3      4627            0.0000000000
     38796      4827  TIP3      H1            -37.6591398690        3.4706062228       45.0072695626  TIP3      4627            0.0000000000
     38797      4827  TIP3      H2            -36.5424495252        2.4500160429       44.9779179141  TIP3      4627            0.0000000000
     38798      4828  TIP3      OH2           -33.1541773965        3.3574097991       43.0064285190  TIP3      4628            0.0000000000
     38799      4828  TIP3      H1            -32.1970284774        3.4683594985       43.1629208651  TIP3      4628            0.0000000000
     38800      4828  TIP3      H2            -33.3901956986        4.0392801547       42.3484180752  TIP3      4628            0.0000000000
     38801      4829  TIP3      OH2           -27.1931554846        0.9460554147       49.5960077827  TIP3      4629            0.0000000000
     38802      4829  TIP3      H1            -27.7927680678        1.0407759799       50.3540871579  TIP3      4629            0.0000000000
     38803      4829  TIP3      H2            -27.8084389234        0.7218391887       48.9005134874  TIP3      4629            0.0000000000
     38804      4830  TIP3      OH2           -34.4487090319        4.5335706314       40.5850476266  TIP3      4630            0.0000000000
     38805      4830  TIP3      H1            -34.9772845511        4.1566835574       39.8606102442  TIP3      4630            0.0000000000
     38806      4830  TIP3      H2            -33.6261603085        4.7425119768       40.1158951233  TIP3      4630            0.0000000000
     38807      4831  TIP3      OH2           -30.3684228732        4.4664965155       48.4013398334  TIP3      4631            0.0000000000
     38808      4831  TIP3      H1            -29.7312260327        3.9858049754       47.8461748110  TIP3      4631            0.0000000000
     38809      4831  TIP3      H2            -30.4355511969        3.9079206741       49.1834146676  TIP3      4631            0.0000000000
     38810      4832  TIP3      OH2           -35.2956585410        0.6452765917       44.8702047613  TIP3      4632            0.0000000000
     38811      4832  TIP3      H1            -35.6376009503       -0.2645411748       44.8004774530  TIP3      4632            0.0000000000
     38812      4832  TIP3      H2            -34.5358421670        0.5862316809       44.2781224713  TIP3      4632            0.0000000000
     38813      4833  TIP3      OH2           -31.0825830721        9.0588227797       42.5160931653  TIP3      4633            0.0000000000
     38814      4833  TIP3      H1            -31.8886201383        8.6045889747       42.1752055554  TIP3      4633            0.0000000000
     38815      4833  TIP3      H2            -31.3231170834        9.1950071852       43.4552161343  TIP3      4633            0.0000000000
     38816      4834  TIP3      OH2           -27.2690847757        1.8807262024       40.6934646961  TIP3      4634            0.0000000000
     38817      4834  TIP3      H1            -28.2189721350        2.0353630314       40.5517297701  TIP3      4634            0.0000000000
     38818      4834  TIP3      H2            -26.9265170752        2.7335424685       41.0358579300  TIP3      4634            0.0000000000
     38819      4835  TIP3      OH2           -26.5340751358        3.8158810952       42.3134305021  TIP3      4635            0.0000000000
     38820      4835  TIP3      H1            -25.6473720327        3.6492127993       42.7003552565  TIP3      4635            0.0000000000
     38821      4835  TIP3      H2            -26.4245652780        4.6151703301       41.7773128599  TIP3      4635            0.0000000000
     38822      4836  TIP3      OH2           -36.0907316596        8.4133906645       48.2579952231  TIP3      4636            0.0000000000
     38823      4836  TIP3      H1            -35.3384586092        8.4072727082       47.6415643302  TIP3      4636            0.0000000000
     38824      4836  TIP3      H2            -35.9022616112        7.5980318769       48.7382120595  TIP3      4636            0.0000000000
     38825      4837  TIP3      OH2           -29.0021069787       10.5356638806       41.5377233329  TIP3      4637            0.0000000000
     38826      4837  TIP3      H1            -29.3417116624       11.3800455973       41.9006337454  TIP3      4637            0.0000000000
     38827      4837  TIP3      H2            -29.7274055868        9.9161275339       41.7685445975  TIP3      4637            0.0000000000
     38828      4838  TIP3      OH2           -21.6400131083        3.9368462065       42.1028473902  TIP3      4638            0.0000000000
     38829      4838  TIP3      H1            -22.1808467411        3.6368604406       41.3468321427  TIP3      4638            0.0000000000
     38830      4838  TIP3      H2            -21.5320472761        4.8747863119       41.8217150492  TIP3      4638            0.0000000000
     38831      4839  TIP3      OH2           -23.3934201063       12.7670561979       42.4772145835  TIP3      4639            0.0000000000
     38832      4839  TIP3      H1            -23.7010532834       11.9303595229       42.8287957342  TIP3      4639            0.0000000000
     38833      4839  TIP3      H2            -22.9982777171       12.5547464905       41.6147109875  TIP3      4639            0.0000000000
     38834      4840  TIP3      OH2           -26.4361510136        7.6448704013       48.8636057783  TIP3      4640            0.0000000000
     38835      4840  TIP3      H1            -27.2094046353        7.4530586409       49.4394599443  TIP3      4640            0.0000000000
     38836      4840  TIP3      H2            -25.9295810946        6.8104182186       48.8876253032  TIP3      4640            0.0000000000
     38837      4841  TIP3      OH2           -33.6232829005       11.9235627056       45.7245304567  TIP3      4641            0.0000000000
     38838      4841  TIP3      H1            -33.1167798605       12.7230356089       45.5020676943  TIP3      4641            0.0000000000
     38839      4841  TIP3      H2            -34.5018773369       12.1513711680       45.3928091739  TIP3      4641            0.0000000000
     38840      4842  TIP3      OH2           -37.9142958588        6.7718196898       40.2561095487  TIP3      4642            0.0000000000
     38841      4842  TIP3      H1            -37.2772948609        7.4048218254       40.6495305626  TIP3      4642            0.0000000000
     38842      4842  TIP3      H2            -38.7533832310        7.1322706663       40.5591583122  TIP3      4642            0.0000000000
     38843      4843  TIP3      OH2           -32.2023140700        9.5910739627       45.1916226090  TIP3      4643            0.0000000000
     38844      4843  TIP3      H1            -32.5127281303       10.5055384802       45.3172488803  TIP3      4643            0.0000000000
     38845      4843  TIP3      H2            -32.9182786866        9.0960670316       45.6337893757  TIP3      4643            0.0000000000
     38846      4844  TIP3      OH2           -33.5069158305       14.5875518752       44.7250123756  TIP3      4644            0.0000000000
     38847      4844  TIP3      H1            -34.4736634533       14.7146470332       44.8686815889  TIP3      4644            0.0000000000
     38848      4844  TIP3      H2            -33.1521445755       15.4145566559       45.1006792355  TIP3      4644            0.0000000000
     38849      4845  TIP3      OH2           -25.8854555238       10.8520481381       40.3412542917  TIP3      4645            0.0000000000
     38850      4845  TIP3      H1            -25.5829582064       10.3788396916       41.1374023733  TIP3      4645            0.0000000000
     38851      4845  TIP3      H2            -26.8405034890       10.6624354589       40.4071417752  TIP3      4645            0.0000000000
     38852      4846  TIP3      OH2           -21.4265595222       15.1878897726       40.5810697851  TIP3      4646            0.0000000000
     38853      4846  TIP3      H1            -20.7279972251       15.8420056261       40.3912624754  TIP3      4646            0.0000000000
     38854      4846  TIP3      H2            -22.1333270551       15.7940070939       40.8818920980  TIP3      4646            0.0000000000
     38855      4847  TIP3      OH2           -25.0992757866        9.4712596062       42.5915001809  TIP3      4647            0.0000000000
     38856      4847  TIP3      H1            -25.3896902616        8.6881610439       43.0984474472  TIP3      4647            0.0000000000
     38857      4847  TIP3      H2            -24.1322926893        9.5339674038       42.7051980693  TIP3      4647            0.0000000000
     38858      4848  TIP3      OH2           -31.7721940607       11.9120348875       38.8274930721  TIP3      4648            0.0000000000
     38859      4848  TIP3      H1            -31.6578286220       11.1469314130       38.2405757816  TIP3      4648            0.0000000000
     38860      4848  TIP3      H2            -32.2019282723       11.4778988354       39.5955690953  TIP3      4648            0.0000000000
     38861      4849  TIP3      OH2           -32.9959090360       11.4348949517       41.2692751256  TIP3      4649            0.0000000000
     38862      4849  TIP3      H1            -32.7363360011       10.9241721631       42.0444738496  TIP3      4649            0.0000000000
     38863      4849  TIP3      H2            -32.9207561856       12.3628119373       41.5928086542  TIP3      4649            0.0000000000
     38864      4850  TIP3      OH2           -36.4860843423        8.6786153558       41.7266388297  TIP3      4650            0.0000000000
     38865      4850  TIP3      H1            -37.1711111325        9.0642584551       42.3172250828  TIP3      4650            0.0000000000
     38866      4850  TIP3      H2            -35.9471077090        9.4562009608       41.4856933056  TIP3      4650            0.0000000000
     38867      4851  TIP3      OH2           -27.8748442888        0.9374679877       43.1713431138  TIP3      4651            0.0000000000
     38868      4851  TIP3      H1            -27.6424545444        1.3975656340       42.3425691746  TIP3      4651            0.0000000000
     38869      4851  TIP3      H2            -27.2968462357        1.3824108653       43.8050802304  TIP3      4651            0.0000000000
     38870      4852  TIP3      OH2           -30.1839888910       13.0977055270       41.9711949959  TIP3      4652            0.0000000000
     38871      4852  TIP3      H1            -30.9985870496       13.6328293693       42.0467173953  TIP3      4652            0.0000000000
     38872      4852  TIP3      H2            -29.6410879134       13.6510689577       41.3899870235  TIP3      4652            0.0000000000
     38873      4853  TIP3      OH2           -30.6345386719        2.6927652144       43.9793674834  TIP3      4653            0.0000000000
     38874      4853  TIP3      H1            -29.8546109289        3.2775296449       44.0421725910  TIP3      4653            0.0000000000
     38875      4853  TIP3      H2            -30.9082962320        2.5493530183       44.9051779745  TIP3      4653            0.0000000000
     38876      4854  TIP3      OH2           -29.7872656535       -0.2440089114       44.8647490238  TIP3      4654            0.0000000000
     38877      4854  TIP3      H1            -30.0965624903        0.4014480418       45.5221135105  TIP3      4654            0.0000000000
     38878      4854  TIP3      H2            -29.0887317189        0.2994185560       44.4262128596  TIP3      4654            0.0000000000
     38879      4855  TIP3      OH2           -32.7812926980       14.1299256786       42.0013014756  TIP3      4655            0.0000000000
     38880      4855  TIP3      H1            -32.6853197846       14.9471437021       41.4532866767  TIP3      4655            0.0000000000
     38881      4855  TIP3      H2            -33.0446145745       14.5003990349       42.8746854772  TIP3      4655            0.0000000000
     38882      4856  TIP3      OH2           -34.1233902743        0.8534345494       41.5849172635  TIP3      4656            0.0000000000
     38883      4856  TIP3      H1            -34.1789542751        1.7530674299       41.9666787992  TIP3      4656            0.0000000000
     38884      4856  TIP3      H2            -33.2147502621        0.6126834059       41.8486431291  TIP3      4656            0.0000000000
     38885      4857  TIP3      OH2           -25.3196981839        5.4248622462       47.9422204848  TIP3      4657            0.0000000000
     38886      4857  TIP3      H1            -26.1495451218        4.9397886297       47.7721790916  TIP3      4657            0.0000000000
     38887      4857  TIP3      H2            -24.8422928500        4.7421564323       48.4772628291  TIP3      4657            0.0000000000
     38888      4858  TIP3      OH2           -35.8372285581       11.3107150855       40.6284983321  TIP3      4658            0.0000000000
     38889      4858  TIP3      H1            -35.1800416243       11.9428668306       40.9323581950  TIP3      4658            0.0000000000
     38890      4858  TIP3      H2            -35.3288406327       10.8420661673       39.9363341629  TIP3      4658            0.0000000000
     38891      4859  TIP3      OH2           -37.5534750321        3.9724405486       39.7919613094  TIP3      4659            0.0000000000
     38892      4859  TIP3      H1            -37.5389948517        4.9298484603       39.9726219106  TIP3      4659            0.0000000000
     38893      4859  TIP3      H2            -38.4399667484        3.8114449758       39.4608139443  TIP3      4659            0.0000000000
     38894      4860  TIP3      OH2           -23.9385006602       14.8732266426       49.6008843868  TIP3      4660            0.0000000000
     38895      4860  TIP3      H1            -24.1156086545       15.5234158437       48.8820131807  TIP3      4660            0.0000000000
     38896      4860  TIP3      H2            -22.9949884772       14.8757411350       49.7577961768  TIP3      4660            0.0000000000
     38897      4861  TIP3      OH2           -37.0146301109       -1.2209742356       48.3060748597  TIP3      4661            0.0000000000
     38898      4861  TIP3      H1            -37.0578864272       -1.2506587613       47.3145394410  TIP3      4661            0.0000000000
     38899      4861  TIP3      H2            -37.3776718796       -2.1182928944       48.5053832665  TIP3      4661            0.0000000000
     38900      4862  TIP3      OH2           -37.7625507193       12.6736899489       44.6768424778  TIP3      4662            0.0000000000
     38901      4862  TIP3      H1            -38.6143696959       13.1256686189       44.6341326191  TIP3      4662            0.0000000000
     38902      4862  TIP3      H2            -37.2749819736       13.1503599284       43.9914893125  TIP3      4662            0.0000000000
     38903      4863  TIP3      OH2           -29.7622007365       13.7606028288       38.9512593857  TIP3      4663            0.0000000000
     38904      4863  TIP3      H1            -30.4552353082       13.1020614247       39.1781209006  TIP3      4663            0.0000000000
     38905      4863  TIP3      H2            -29.0438457575       13.1619506593       38.7038119130  TIP3      4663            0.0000000000
     38906      4864  TIP3      OH2           -25.2021204660       13.5014816418       39.1389930387  TIP3      4664            0.0000000000
     38907      4864  TIP3      H1            -24.8977266703       12.7308684194       39.6468034342  TIP3      4664            0.0000000000
     38908      4864  TIP3      H2            -24.4409555041       13.7283278535       38.5852770168  TIP3      4664            0.0000000000
     38909      4865  TIP3      OH2           -34.3276808488        9.4441988769       38.9560162407  TIP3      4665            0.0000000000
     38910      4865  TIP3      H1            -34.1772639992        8.6882246191       39.5462426102  TIP3      4665            0.0000000000
     38911      4865  TIP3      H2            -33.5750840146        9.3330091461       38.3415404457  TIP3      4665            0.0000000000
     38912      4866  TIP3      OH2           -28.8867641824       10.5560625608       38.7333576976  TIP3      4666            0.0000000000
     38913      4866  TIP3      H1            -29.1574250628       10.6358632784       39.6619179136  TIP3      4666            0.0000000000
     38914      4866  TIP3      H2            -29.0752946131        9.5983375905       38.5882984328  TIP3      4666            0.0000000000
     38915      4867  TIP3      OH2           -33.1131130220        7.4643631564       41.3830547357  TIP3      4667            0.0000000000
     38916      4867  TIP3      H1            -33.6117276150        6.9210573225       42.0108524678  TIP3      4667            0.0000000000
     38917      4867  TIP3      H2            -32.8140916056        6.7914045011       40.7277137045  TIP3      4667            0.0000000000
     38918      4868  TIP3      OH2           -32.0504564862        5.6958301041       39.5742440576  TIP3      4668            0.0000000000
     38919      4868  TIP3      H1            -32.1944798625        5.5991451130       38.6150919383  TIP3      4668            0.0000000000
     38920      4868  TIP3      H2            -31.0721233922        5.7388098026       39.6489577981  TIP3      4668            0.0000000000
     38921      4869  TIP3      OH2           -22.7102085171        8.0114003820       39.0251808097  TIP3      4669            0.0000000000
     38922      4869  TIP3      H1            -22.8946471448        7.6227995918       38.1499644470  TIP3      4669            0.0000000000
     38923      4869  TIP3      H2            -22.6200172037        8.9690412368       38.8077265558  TIP3      4669            0.0000000000
     38924      4870  TIP3      OH2           -32.2077713489       16.3897713041       40.6636184722  TIP3      4670            0.0000000000
     38925      4870  TIP3      H1            -31.2407432422       16.4720750532       40.7301442629  TIP3      4670            0.0000000000
     38926      4870  TIP3      H2            -32.3519935428       16.9884617458       39.9220825235  TIP3      4670            0.0000000000
     38927      4871  TIP3      OH2           -38.2545054121       11.0824417053       39.8326753157  TIP3      4671            0.0000000000
     38928      4871  TIP3      H1            -37.3749665980       11.0062498710       40.2721536473  TIP3      4671            0.0000000000
     38929      4871  TIP3      H2            -38.3570782511       10.2368611465       39.3581616498  TIP3      4671            0.0000000000
     38930      4872  TIP3      OH2            40.2933550629       16.5393938722       44.9071646524  TIP3      4672            0.0000000000
     38931      4872  TIP3      H1             39.4853497252       16.0992511595       44.5803589100  TIP3      4672            0.0000000000
     38932      4872  TIP3      H2             40.4028981207       15.8989117104       45.6423362923  TIP3      4672            0.0000000000
     38933      4873  TIP3      OH2           -39.0022465123       14.4752238904       47.0028951710  TIP3      4673            0.0000000000
     38934      4873  TIP3      H1            -39.2694359545       13.5674312125       47.2129969398  TIP3      4673            0.0000000000
     38935      4873  TIP3      H2            -38.7127255777       14.7925976634       47.8949577695  TIP3      4673            0.0000000000
     38936      4874  TIP3      OH2           -22.2366944902        8.8960096149       43.0372709983  TIP3      4674            0.0000000000
     38937      4874  TIP3      H1            -21.3890465112        9.4115990483       43.0711093358  TIP3      4674            0.0000000000
     38938      4874  TIP3      H2            -21.9435153230        8.1391095333       43.5652402909  TIP3      4674            0.0000000000
     38939      4875  TIP3      OH2           -21.7876843386        6.9511128267       44.8604107240  TIP3      4675            0.0000000000
     38940      4875  TIP3      H1            -22.4001297249        6.3275681701       45.3079389779  TIP3      4675            0.0000000000
     38941      4875  TIP3      H2            -21.0997166623        7.1133603301       45.5662537604  TIP3      4675            0.0000000000
     38942      4876  TIP3      OH2           -21.9784249855        9.9412457539       49.6178580567  TIP3      4676            0.0000000000
     38943      4876  TIP3      H1            -21.1534612130        9.4381855116       49.4894998132  TIP3      4676            0.0000000000
     38944      4876  TIP3      H2            -21.7708333837       10.8857064123       49.5772086235  TIP3      4676            0.0000000000
     38945      4877  TIP3      OH2           -21.5578755578        6.7957676723       41.2475689362  TIP3      4677            0.0000000000
     38946      4877  TIP3      H1            -22.0568390517        7.1669202139       40.4898885118  TIP3      4677            0.0000000000
     38947      4877  TIP3      H2            -21.5504659641        7.5544393728       41.8537892923  TIP3      4677            0.0000000000
     38948      4878  TIP3      OH2           -23.1388844944        4.0501218986       39.7396200348  TIP3      4678            0.0000000000
     38949      4878  TIP3      H1            -23.0717418366        4.7200816843       39.0482577452  TIP3      4678            0.0000000000
     38950      4878  TIP3      H2            -23.3291196754        3.2284889887       39.2439653016  TIP3      4678            0.0000000000
     38951      4879  TIP3      OH2           -23.9998596468        5.5279271594       45.4517944279  TIP3      4679            0.0000000000
     38952      4879  TIP3      H1            -24.1196302933        4.5568895773       45.3579968205  TIP3      4679            0.0000000000
     38953      4879  TIP3      H2            -24.3526519526        5.6290594708       46.3580421159  TIP3      4679            0.0000000000
     38954      4880  TIP3      OH2           -38.8898001655        7.3522720381       49.4730569777  TIP3      4680            0.0000000000
     38955      4880  TIP3      H1            -38.6945180212        7.4139898828       48.5125095041  TIP3      4680            0.0000000000
     38956      4880  TIP3      H2            -38.0159987204        7.3715338109       49.8843192731  TIP3      4680            0.0000000000
     38957      4881  TIP3      OH2           -23.8917590945        1.5286016936       38.8768145687  TIP3      4681            0.0000000000
     38958      4881  TIP3      H1            -23.3050576838        1.0872739194       39.5198894826  TIP3      4681            0.0000000000
     38959      4881  TIP3      H2            -24.7573285046        1.1109063040       39.0289418999  TIP3      4681            0.0000000000
     38960      4882  TIP3      OH2           -24.3427386695        3.0817764190       43.8308729941  TIP3      4682            0.0000000000
     38961      4882  TIP3      H1            -24.0510687046        2.1485401573       43.9833534856  TIP3      4682            0.0000000000
     38962      4882  TIP3      H2            -23.5156028641        3.4438313723       43.4899962116  TIP3      4682            0.0000000000
     38963      4883  TIP3      OH2           -23.7253765286        3.7186456849       48.8710710438  TIP3      4683            0.0000000000
     38964      4883  TIP3      H1            -22.7642725298        3.7531551477       49.0661810405  TIP3      4683            0.0000000000
     38965      4883  TIP3      H2            -24.0912465029        3.6475655547       49.7775887711  TIP3      4683            0.0000000000
     38966      4884  TIP3      OH2           -23.6608406451        0.3470053063       43.9108428692  TIP3      4684            0.0000000000
     38967      4884  TIP3      H1            -23.4451344357       -0.0863251312       44.7665066443  TIP3      4684            0.0000000000
     38968      4884  TIP3      H2            -24.2554449503       -0.2954408702       43.4745417633  TIP3      4684            0.0000000000
     38969      4885  TIP3      OH2           -38.1685457377        1.2190944791       48.3924476784  TIP3      4685            0.0000000000
     38970      4885  TIP3      H1            -37.8009803937        0.3467765340       48.6480732330  TIP3      4685            0.0000000000
     38971      4885  TIP3      H2            -37.6213622984        1.8412205274       48.8942686216  TIP3      4685            0.0000000000
     38972      4886  TIP3      OH2           -39.8601120226        4.7071841644       49.4471099348  TIP3      4686            0.0000000000
     38973      4886  TIP3      H1            -39.3386882014        4.2195245578       48.7754244419  TIP3      4686            0.0000000000
     38974      4886  TIP3      H2            -39.1994983454        5.2693853639       49.8478850858  TIP3      4686            0.0000000000
     38975      4887  TIP3      OH2           -21.8407126002        0.3791936442       40.4644674508  TIP3      4687            0.0000000000
     38976      4887  TIP3      H1            -21.4294421993       -0.3331223870       39.9275776470  TIP3      4687            0.0000000000
     38977      4887  TIP3      H2            -21.1346216749        1.0416717156       40.5120293467  TIP3      4687            0.0000000000
     38978      4888  TIP3      OH2           -39.4921429698        0.4280033433       43.4903772994  TIP3      4688            0.0000000000
     38979      4888  TIP3      H1            -40.4359953337        0.5961132746       43.4041505836  TIP3      4688            0.0000000000
     38980      4888  TIP3      H2            -39.0516742849        0.9416790699       42.7920015833  TIP3      4688            0.0000000000
     38981      4889  TIP3      OH2           -24.7822651615       15.3629414660       45.5191150002  TIP3      4689            0.0000000000
     38982      4889  TIP3      H1            -24.0996440264       15.0560171651       44.8890857351  TIP3      4689            0.0000000000
     38983      4889  TIP3      H2            -24.2711484894       15.8805231645       46.1605642937  TIP3      4689            0.0000000000
     38984      4890  TIP3      OH2           -37.7525394372       15.1136420677       49.0419898760  TIP3      4690            0.0000000000
     38985      4890  TIP3      H1            -37.6483434627       14.8864949762       49.9688457657  TIP3      4690            0.0000000000
     38986      4890  TIP3      H2            -36.8597156841       14.8359714526       48.7541933140  TIP3      4690            0.0000000000
     38987      4891  TIP3      OH2           -35.5071988995       13.8744491628       47.9115692781  TIP3      4691            0.0000000000
     38988      4891  TIP3      H1            -35.6404046613       12.9244406397       48.0883542765  TIP3      4691            0.0000000000
     38989      4891  TIP3      H2            -34.6387545489       14.0073812872       48.3460023949  TIP3      4691            0.0000000000
     38990      4892  TIP3      OH2           -32.9543509249       14.3480766912       48.7661379286  TIP3      4692            0.0000000000
     38991      4892  TIP3      H1            -32.7193441778       13.4459143137       48.4963712421  TIP3      4692            0.0000000000
     38992      4892  TIP3      H2            -32.8654456864       14.2843622312       49.7209620895  TIP3      4692            0.0000000000
     38993      4893  TIP3      OH2           -29.4161848396        0.0581066700       47.9027550235  TIP3      4693            0.0000000000
     38994      4893  TIP3      H1            -30.0627196257       -0.5947616537       48.2367685991  TIP3      4693            0.0000000000
     38995      4893  TIP3      H2            -28.8440050518       -0.5226249543       47.3827826890  TIP3      4693            0.0000000000
     38996      4894  TIP3      OH2           -24.2728803670       -1.9008431376       47.9860824365  TIP3      4694            0.0000000000
     38997      4894  TIP3      H1            -23.6793438815       -1.3140529341       47.4676033553  TIP3      4694            0.0000000000
     38998      4894  TIP3      H2            -25.1674957742       -1.5541328048       47.7916531124  TIP3      4694            0.0000000000
     38999      4895  TIP3      OH2           -22.5916089358       -0.6937519138       46.2625014511  TIP3      4695            0.0000000000
     39000      4895  TIP3      H1            -21.9197783640       -1.2698045528       45.8374352845  TIP3      4695            0.0000000000
     39001      4895  TIP3      H2            -22.0985130018        0.1509481067       46.3529664313  TIP3      4695            0.0000000000
     39002      4896  TIP3      OH2           -37.0344171793       -1.3710632671       45.6938674158  TIP3      4696            0.0000000000
     39003      4896  TIP3      H1            -37.8428188309       -1.5678099900       45.1791706397  TIP3      4696            0.0000000000
     39004      4896  TIP3      H2            -36.5963984121       -2.2475068734       45.6714354439  TIP3      4696            0.0000000000
     39005      4897  TIP3      OH2           -38.3218969684       -1.6396955618       41.4785108882  TIP3      4697            0.0000000000
     39006      4897  TIP3      H1            -37.7870636913       -1.0057911748       40.9577682755  TIP3      4697            0.0000000000
     39007      4897  TIP3      H2            -38.8313981003       -1.0460252194       42.0526322705  TIP3      4697            0.0000000000
     39008      4898  TIP3      OH2           -32.5902009457       -1.4601108363       45.5769313827  TIP3      4698            0.0000000000
     39009      4898  TIP3      H1            -31.6925941768       -1.0941730860       45.4578420368  TIP3      4698            0.0000000000
     39010      4898  TIP3      H2            -32.5751250352       -1.6862233902       46.5011809295  TIP3      4698            0.0000000000
     39011      4899  TIP3      OH2           -26.8522284330       -1.4134160409       47.1568664512  TIP3      4699            0.0000000000
     39012      4899  TIP3      H1            -26.9099649901       -1.3089529142       46.2080518918  TIP3      4699            0.0000000000
     39013      4899  TIP3      H2            -27.2568352641       -2.2994050960       47.3138038621  TIP3      4699            0.0000000000
     39014      4900  TIP3      OH2           -25.5973522794       -1.3997954720       42.8630537663  TIP3      4700            0.0000000000
     39015      4900  TIP3      H1            -26.3471033871       -0.8063299585       42.7062285778  TIP3      4700            0.0000000000
     39016      4900  TIP3      H2            -26.0368169110       -2.2514186092       43.0991499789  TIP3      4700            0.0000000000
     39017      4901  TIP3      OH2           -38.3770857160       14.3194070088       42.4886806341  TIP3      4701            0.0000000000
     39018      4901  TIP3      H1            -39.0411917799       14.3314879184       41.7952433184  TIP3      4701            0.0000000000
     39019      4901  TIP3      H2            -38.3499623103       15.2705975166       42.6886080584  TIP3      4701            0.0000000000
     39020      4902  TIP3      OH2           -36.4549208188        0.3192083902       39.9849687552  TIP3      4702            0.0000000000
     39021      4902  TIP3      H1            -35.9007786700       -0.2951280696       39.4740128836  TIP3      4702            0.0000000000
     39022      4902  TIP3      H2            -35.7895800471        0.6333882273       40.6262510575  TIP3      4702            0.0000000000
     39023      4903  TIP3      OH2           -31.4285291823        0.5648031311       42.4065131619  TIP3      4703            0.0000000000
     39024      4903  TIP3      H1            -31.1707077128       -0.0089422763       43.1474028732  TIP3      4703            0.0000000000
     39025      4903  TIP3      H2            -31.3547068134        1.4330111560       42.8609884431  TIP3      4703            0.0000000000
     39026      4904  TIP3      OH2           -29.4925816700       15.6420555987       40.8528826931  TIP3      4704            0.0000000000
     39027      4904  TIP3      H1            -28.5743700752       15.8655325918       40.6307127734  TIP3      4704            0.0000000000
     39028      4904  TIP3      H2            -29.7138737828       15.1203852548       40.0528431268  TIP3      4704            0.0000000000
     39029      4905  TIP3      OH2           -22.7910983547       15.1267374896       43.5714145839  TIP3      4705            0.0000000000
     39030      4905  TIP3      H1            -22.9881186419       14.3467441599       43.0047870741  TIP3      4705            0.0000000000
     39031      4905  TIP3      H2            -22.8551919852       15.8604790166       42.9265942637  TIP3      4705            0.0000000000
     39032      4906  TIP3      OH2           -36.6033816878       15.2815269103       39.4440966551  TIP3      4706            0.0000000000
     39033      4906  TIP3      H1            -36.8109875083       15.5829500082       40.3385877322  TIP3      4706            0.0000000000
     39034      4906  TIP3      H2            -35.7851914868       14.7664212686       39.6037371844  TIP3      4706            0.0000000000
     39035      4907  TIP3      OH2            -9.1115761999        7.7635240717       45.6314800019  TIP3      4707            0.0000000000
     39036      4907  TIP3      H1             -9.1111291650        8.7457070582       45.6005896267  TIP3      4707            0.0000000000
     39037      4907  TIP3      H2             -9.8370524652        7.5377618247       45.0259753629  TIP3      4707            0.0000000000
     39038      4908  TIP3      OH2           -10.2332662223        7.0215877530       49.1377254620  TIP3      4708            0.0000000000
     39039      4908  TIP3      H1            -10.3034296348        6.3760902963       49.8637623231  TIP3      4708            0.0000000000
     39040      4908  TIP3      H2            -10.5421956166        6.5436739374       48.3548409600  TIP3      4708            0.0000000000
     39041      4909  TIP3      OH2            -6.6581155697        9.9303154880       47.3491106437  TIP3      4709            0.0000000000
     39042      4909  TIP3      H1             -6.9963728681        9.2119006684       47.9107409440  TIP3      4709            0.0000000000
     39043      4909  TIP3      H2             -6.5123949815       10.6159817170       48.0548466217  TIP3      4709            0.0000000000
     39044      4910  TIP3      OH2           -16.9788736452       11.2177559097       49.0742771902  TIP3      4710            0.0000000000
     39045      4910  TIP3      H1            -17.2788158063       10.3110138704       48.8497268913  TIP3      4710            0.0000000000
     39046      4910  TIP3      H2            -16.0338086954       10.9864533321       49.2220543549  TIP3      4710            0.0000000000
     39047      4911  TIP3      OH2           -20.3263133138        4.6813989608       44.6759928617  TIP3      4711            0.0000000000
     39048      4911  TIP3      H1            -20.6838445623        5.5777943191       44.5861061527  TIP3      4711            0.0000000000
     39049      4911  TIP3      H2            -20.8821713372        4.1610596592       44.0804646592  TIP3      4711            0.0000000000
     39050      4912  TIP3      OH2           -19.6454698293        6.9040775512       46.7561683054  TIP3      4712            0.0000000000
     39051      4912  TIP3      H1            -19.3299580880        6.1266412133       47.2510543077  TIP3      4712            0.0000000000
     39052      4912  TIP3      H2            -18.9089785184        7.0759342817       46.1371016526  TIP3      4712            0.0000000000
     39053      4913  TIP3      OH2            -9.4417752152       15.1407695320       47.6752201458  TIP3      4713            0.0000000000
     39054      4913  TIP3      H1             -8.7934176800       14.4606901743       47.3629107782  TIP3      4713            0.0000000000
     39055      4913  TIP3      H2             -9.6369558510       14.8027378739       48.5501321640  TIP3      4713            0.0000000000
     39056      4914  TIP3      OH2           -11.8217142218        9.4810572031       49.5641689061  TIP3      4714            0.0000000000
     39057      4914  TIP3      H1            -11.4850126820        8.7893641828       48.9718098432  TIP3      4714            0.0000000000
     39058      4914  TIP3      H2            -11.0674719517        9.5489043878       50.1573678771  TIP3      4714            0.0000000000
     39059      4915  TIP3      OH2            -8.6657564949        3.8884575219       49.8910076841  TIP3      4715            0.0000000000
     39060      4915  TIP3      H1             -8.5503846518        2.9242847959       49.9032868759  TIP3      4715            0.0000000000
     39061      4915  TIP3      H2             -8.7866523659        4.0350498083       48.9283388542  TIP3      4715            0.0000000000
     39062      4916  TIP3      OH2           -15.5640237939        1.9633943097       47.1146381937  TIP3      4716            0.0000000000
     39063      4916  TIP3      H1            -15.4864610666        2.8112115018       46.6370849947  TIP3      4716            0.0000000000
     39064      4916  TIP3      H2            -15.9991669287        1.3970926787       46.4397496049  TIP3      4716            0.0000000000
     39065      4917  TIP3      OH2            -7.8901688330        2.0650132781       45.4935233221  TIP3      4717            0.0000000000
     39066      4917  TIP3      H1             -7.2268484518        1.7442760863       46.1510628354  TIP3      4717            0.0000000000
     39067      4917  TIP3      H2             -7.3056806689        2.6350085425       44.9696627535  TIP3      4717            0.0000000000
     39068      4918  TIP3      OH2           -18.9836702608        4.3460678598       47.8624406454  TIP3      4718            0.0000000000
     39069      4918  TIP3      H1            -18.3060311847        3.8160548486       48.3275758887  TIP3      4718            0.0000000000
     39070      4918  TIP3      H2            -18.8341154981        4.0786107555       46.9340150615  TIP3      4718            0.0000000000
     39071      4919  TIP3      OH2           -13.8118477513        5.9211465823       47.1692087523  TIP3      4719            0.0000000000
     39072      4919  TIP3      H1            -13.1335904294        5.3420790164       47.5621971972  TIP3      4719            0.0000000000
     39073      4919  TIP3      H2            -14.3281251723        5.2760294497       46.6447469189  TIP3      4719            0.0000000000
     39074      4920  TIP3      OH2            -9.4138790700       10.3570637825       44.7371126865  TIP3      4720            0.0000000000
     39075      4920  TIP3      H1             -9.6499725564       10.0821196297       43.8433387076  TIP3      4720            0.0000000000
     39076      4920  TIP3      H2             -9.7001612915       11.2955267104       44.7787292363  TIP3      4720            0.0000000000
     39077      4921  TIP3      OH2            -6.1055448222        1.4007515272       47.4655236231  TIP3      4721            0.0000000000
     39078      4921  TIP3      H1             -6.2777547861        0.6529690417       48.0525634375  TIP3      4721            0.0000000000
     39079      4921  TIP3      H2             -5.4183242076        1.8400810464       48.0025062449  TIP3      4721            0.0000000000
     39080      4922  TIP3      OH2           -17.1126715072        2.7385962686       49.1294873096  TIP3      4722            0.0000000000
     39081      4922  TIP3      H1            -16.5470365266        3.4332378644       49.4645870368  TIP3      4722            0.0000000000
     39082      4922  TIP3      H2            -16.5887663868        2.3137494417       48.4198693058  TIP3      4722            0.0000000000
     39083      4923  TIP3      OH2           -20.3851347021       10.9393224879       42.9102625264  TIP3      4723            0.0000000000
     39084      4923  TIP3      H1            -19.9099119359       10.5072239213       42.1866789779  TIP3      4723            0.0000000000
     39085      4923  TIP3      H2            -19.6393036192       10.9786279340       43.5469231130  TIP3      4723            0.0000000000
     39086      4924  TIP3      OH2            -5.9841180907       11.5231181610       49.2784179424  TIP3      4724            0.0000000000
     39087      4924  TIP3      H1             -6.7722795573       11.6357924715       49.8525415519  TIP3      4724            0.0000000000
     39088      4924  TIP3      H2             -5.6266811647       12.3984752133       49.4590234723  TIP3      4724            0.0000000000
     39089      4925  TIP3      OH2           -12.7167822873       -1.7542536223       48.6001308766  TIP3      4725            0.0000000000
     39090      4925  TIP3      H1            -12.8103584926       -2.7244370034       48.5597623040  TIP3      4725            0.0000000000
     39091      4925  TIP3      H2            -13.6070796946       -1.4696622693       48.8951554572  TIP3      4725            0.0000000000
     39092      4926  TIP3      OH2            -7.8064302716       13.5898588686       46.3665919995  TIP3      4726            0.0000000000
     39093      4926  TIP3      H1             -7.3591962806       12.8776791263       45.8560187605  TIP3      4726            0.0000000000
     39094      4926  TIP3      H2             -7.3582479725       14.3855970998       46.0163654063  TIP3      4726            0.0000000000
     39095      4927  TIP3      OH2            -6.5551764512       11.5475244146       44.9024388162  TIP3      4727            0.0000000000
     39096      4927  TIP3      H1             -6.8588552328       10.8391679468       44.3099189248  TIP3      4727            0.0000000000
     39097      4927  TIP3      H2             -6.5273244683       11.0483311354       45.7427316612  TIP3      4727            0.0000000000
     39098      4928  TIP3      OH2           -10.4479754849        7.0021983069       43.1415534331  TIP3      4728            0.0000000000
     39099      4928  TIP3      H1            -11.1426713671        7.5810082259       42.7836350483  TIP3      4728            0.0000000000
     39100      4928  TIP3      H2             -9.7406750505        7.0991744951       42.4780030337  TIP3      4728            0.0000000000
     39101      4929  TIP3      OH2           -10.3663159046        5.5687964697       40.1341592680  TIP3      4729            0.0000000000
     39102      4929  TIP3      H1             -9.6775501566        5.5545342974       40.8231047744  TIP3      4729            0.0000000000
     39103      4929  TIP3      H2            -10.0361903582        4.8425641246       39.5933305045  TIP3      4729            0.0000000000
     39104      4930  TIP3      OH2            -6.9944117078        7.2252156427       44.0585266334  TIP3      4730            0.0000000000
     39105      4930  TIP3      H1             -7.7489875543        7.4501257671       44.6525387393  TIP3      4730            0.0000000000
     39106      4930  TIP3      H2             -6.5325582309        6.5344302718       44.5635237108  TIP3      4730            0.0000000000
     39107      4931  TIP3      OH2           -15.4114279440        7.8664924722       45.9797783096  TIP3      4731            0.0000000000
     39108      4931  TIP3      H1            -15.7448845703        7.4992248321       45.1317942031  TIP3      4731            0.0000000000
     39109      4931  TIP3      H2            -14.7746032391        7.1819800011       46.2602221974  TIP3      4731            0.0000000000
     39110      4932  TIP3      OH2           -13.9948851075       11.3244108994       48.6204462310  TIP3      4732            0.0000000000
     39111      4932  TIP3      H1            -14.0656458111       10.7449166102       47.8483288659  TIP3      4732            0.0000000000
     39112      4932  TIP3      H2            -13.2844727716       10.8938587552       49.1270644990  TIP3      4732            0.0000000000
     39113      4933  TIP3      OH2           -15.1698663419        6.6988132011       49.4856331995  TIP3      4733            0.0000000000
     39114      4933  TIP3      H1            -14.5268739623        6.7696938651       48.7670451785  TIP3      4733            0.0000000000
     39115      4933  TIP3      H2            -14.7153617486        7.1628904204       50.2081357845  TIP3      4733            0.0000000000
     39116      4934  TIP3      OH2            -8.1264268874        6.4255987109       41.7314221916  TIP3      4734            0.0000000000
     39117      4934  TIP3      H1             -7.5662884000        6.5944965825       42.5319224688  TIP3      4734            0.0000000000
     39118      4934  TIP3      H2             -7.6687447903        6.9086980942       41.0066709154  TIP3      4734            0.0000000000
     39119      4935  TIP3      OH2           -10.4043398072       13.1306457878       45.1706138139  TIP3      4735            0.0000000000
     39120      4935  TIP3      H1             -9.9824881869       13.4340698104       45.9836786188  TIP3      4735            0.0000000000
     39121      4935  TIP3      H2            -10.9781891469       13.8763897398       44.9531803767  TIP3      4735            0.0000000000
     39122      4936  TIP3      OH2            -4.3915415137       -1.8411495249       41.6346787506  TIP3      4736            0.0000000000
     39123      4936  TIP3      H1             -5.3423455238       -1.7342619209       41.8701485708  TIP3      4736            0.0000000000
     39124      4936  TIP3      H2             -4.1864463682       -0.9918546085       41.2029402340  TIP3      4736            0.0000000000
     39125      4937  TIP3      OH2           -16.3088407599        6.8116926391       43.4678933063  TIP3      4737            0.0000000000
     39126      4937  TIP3      H1            -16.7104176331        7.6736371259       43.2027281093  TIP3      4737            0.0000000000
     39127      4937  TIP3      H2            -17.0890127736        6.2570805536       43.3966062147  TIP3      4737            0.0000000000
     39128      4938  TIP3      OH2            -3.2920318974       12.5174150942       39.9636970421  TIP3      4738            0.0000000000
     39129      4938  TIP3      H1             -3.1190468682       13.4511347157       40.1689481892  TIP3      4738            0.0000000000
     39130      4938  TIP3      H2             -2.3700482789       12.1859960577       39.9940896422  TIP3      4738            0.0000000000
     39131      4939  TIP3      OH2           -20.5011200358       12.2354283762       49.0746802656  TIP3      4739            0.0000000000
     39132      4939  TIP3      H1            -19.5984853188       11.9505451032       49.2614897586  TIP3      4739            0.0000000000
     39133      4939  TIP3      H2            -20.6792767713       12.9034197203       49.7412767927  TIP3      4739            0.0000000000
     39134      4940  TIP3      OH2           -10.8999037560       16.0515835783       43.6056604971  TIP3      4740            0.0000000000
     39135      4940  TIP3      H1            -11.0593530260       15.9723881900       42.6492182316  TIP3      4740            0.0000000000
     39136      4940  TIP3      H2            -10.9424841455       17.0117880708       43.7730456435  TIP3      4740            0.0000000000
     39137      4941  TIP3      OH2           -17.2781240400       14.9127002151       45.4142915933  TIP3      4741            0.0000000000
     39138      4941  TIP3      H1            -17.1414997100       14.5104469482       46.2989440729  TIP3      4741            0.0000000000
     39139      4941  TIP3      H2            -18.1326382579       14.4927885202       45.1889322382  TIP3      4741            0.0000000000
     39140      4942  TIP3      OH2            -7.8126386506       15.2681625299       40.6125919688  TIP3      4742            0.0000000000
     39141      4942  TIP3      H1             -7.5024250087       14.4423265433       40.1600637030  TIP3      4742            0.0000000000
     39142      4942  TIP3      H2             -7.9262044638       14.9502529160       41.5452650241  TIP3      4742            0.0000000000
     39143      4943  TIP3      OH2            -8.1725170305       15.1889910525       43.3487055159  TIP3      4743            0.0000000000
     39144      4943  TIP3      H1             -9.1353053649       15.2730916361       43.5404611350  TIP3      4743            0.0000000000
     39145      4943  TIP3      H2             -7.9559847588       14.4568887908       43.9532758824  TIP3      4743            0.0000000000
     39146      4944  TIP3      OH2           -15.3766527065       -0.9098418890       49.4289145387  TIP3      4744            0.0000000000
     39147      4944  TIP3      H1            -16.2422085562       -1.0221487450       48.9728153983  TIP3      4744            0.0000000000
     39148      4944  TIP3      H2            -15.4556795605       -0.0401627131       49.8281985521  TIP3      4744            0.0000000000
     39149      4945  TIP3      OH2            -6.6724062554        7.4487239235       39.5515043679  TIP3      4745            0.0000000000
     39150      4945  TIP3      H1             -6.6793701862        7.2472323191       38.5894757492  TIP3      4745            0.0000000000
     39151      4945  TIP3      H2             -5.8050611067        7.8731053697       39.6088056041  TIP3      4745            0.0000000000
     39152      4946  TIP3      OH2           -11.1136641888        1.3917392594       40.0222494298  TIP3      4746            0.0000000000
     39153      4946  TIP3      H1            -11.3893485870        1.3176338272       40.9568040921  TIP3      4746            0.0000000000
     39154      4946  TIP3      H2            -11.3838692667        0.4909664391       39.7456308364  TIP3      4746            0.0000000000
     39155      4947  TIP3      OH2           -15.2952611754        4.1772865806       45.4900036329  TIP3      4747            0.0000000000
     39156      4947  TIP3      H1            -16.2414418587        3.9620730301       45.3557118765  TIP3      4747            0.0000000000
     39157      4947  TIP3      H2            -14.9278606025        3.9129621104       44.6201220437  TIP3      4747            0.0000000000
     39158      4948  TIP3      OH2            -9.7793191615        4.7078889700       44.2578582122  TIP3      4748            0.0000000000
     39159      4948  TIP3      H1            -10.1711463773        5.5422665676       43.9150184299  TIP3      4748            0.0000000000
     39160      4948  TIP3      H2             -9.0777822257        4.5442417139       43.6048891209  TIP3      4748            0.0000000000
     39161      4949  TIP3      OH2            -8.7713125881        4.1844443685       47.1214796299  TIP3      4749            0.0000000000
     39162      4949  TIP3      H1             -9.0067324312        4.7642233612       46.3739828445  TIP3      4749            0.0000000000
     39163      4949  TIP3      H2             -8.6369011915        3.3494010740       46.6220434322  TIP3      4749            0.0000000000
     39164      4950  TIP3      OH2           -14.2757738341        1.7500403878       39.1690870358  TIP3      4750            0.0000000000
     39165      4950  TIP3      H1            -14.7094596672        1.3148902887       39.9376865799  TIP3      4750            0.0000000000
     39166      4950  TIP3      H2            -15.0184622662        2.1441613806       38.6986414211  TIP3      4750            0.0000000000
     39167      4951  TIP3      OH2           -21.0051791772        1.4903536016       46.2521619195  TIP3      4751            0.0000000000
     39168      4951  TIP3      H1            -20.3398650242        1.4519647691       46.9695863685  TIP3      4751            0.0000000000
     39169      4951  TIP3      H2            -20.5424263393        1.0706896530       45.5047078162  TIP3      4751            0.0000000000
     39170      4952  TIP3      OH2           -19.7250419484        2.1619195443       41.6464334796  TIP3      4752            0.0000000000
     39171      4952  TIP3      H1            -19.2076206298        2.7766492816       41.0892852619  TIP3      4752            0.0000000000
     39172      4952  TIP3      H2            -20.4006068449        2.7794695497       41.9864190014  TIP3      4752            0.0000000000
     39173      4953  TIP3      OH2           -12.7418238577        1.8102954151       46.5153391345  TIP3      4753            0.0000000000
     39174      4953  TIP3      H1            -13.6753597082        1.7602268075       46.8008547537  TIP3      4753            0.0000000000
     39175      4953  TIP3      H2            -12.2491147222        1.5911991973       47.3188359395  TIP3      4753            0.0000000000
     39176      4954  TIP3      OH2           -17.9210805673        3.2912281426       45.3726973068  TIP3      4754            0.0000000000
     39177      4954  TIP3      H1            -18.8028231782        3.4866052180       44.9879844461  TIP3      4754            0.0000000000
     39178      4954  TIP3      H2            -17.6716000305        2.4496343205       44.9583220728  TIP3      4754            0.0000000000
     39179      4955  TIP3      OH2           -14.2998545463        3.3602901938       43.0134155529  TIP3      4755            0.0000000000
     39180      4955  TIP3      H1            -13.3417458429        3.4676580253       43.1638203323  TIP3      4755            0.0000000000
     39181      4955  TIP3      H2            -14.5293988911        4.0348911352       42.3458068536  TIP3      4755            0.0000000000
     39182      4956  TIP3      OH2            -8.3378433657        0.9456879168       49.5961375809  TIP3      4756            0.0000000000
     39183      4956  TIP3      H1             -8.9373167809        1.0409814848       50.3545990327  TIP3      4756            0.0000000000
     39184      4956  TIP3      H2             -8.9504917708        0.7216022023       48.8986350310  TIP3      4756            0.0000000000
     39185      4957  TIP3      OH2           -15.5876643873        4.5333492569       40.5825299071  TIP3      4757            0.0000000000
     39186      4957  TIP3      H1            -16.1326653024        4.1499013013       39.8786106121  TIP3      4757            0.0000000000
     39187      4957  TIP3      H2            -14.7625228221        4.7403623975       40.1207777040  TIP3      4757            0.0000000000
     39188      4958  TIP3      OH2           -11.5068539110        4.4733918562       48.3949734216  TIP3      4758            0.0000000000
     39189      4958  TIP3      H1            -10.8702423960        3.9903991728       47.8411297735  TIP3      4758            0.0000000000
     39190      4958  TIP3      H2            -11.5654128574        3.9243589170       49.1844424885  TIP3      4758            0.0000000000
     39191      4959  TIP3      OH2           -16.4467697210        0.6544426216       44.8418358806  TIP3      4759            0.0000000000
     39192      4959  TIP3      H1            -16.7727438289       -0.2636977427       44.8171898862  TIP3      4759            0.0000000000
     39193      4959  TIP3      H2            -15.6689204989        0.5895720352       44.2747347500  TIP3      4759            0.0000000000
     39194      4960  TIP3      OH2           -12.2550968386        9.0699129122       42.5173149761  TIP3      4760            0.0000000000
     39195      4960  TIP3      H1            -13.0573121931        8.6035265477       42.1858716192  TIP3      4760            0.0000000000
     39196      4960  TIP3      H2            -12.4664912360        9.1918735117       43.4633785975  TIP3      4760            0.0000000000
     39197      4961  TIP3      OH2            -8.4358890318        1.8730670726       40.6902310651  TIP3      4761            0.0000000000
     39198      4961  TIP3      H1             -9.3780354962        2.0470160927       40.5458634865  TIP3      4761            0.0000000000
     39199      4961  TIP3      H2             -8.0756466682        2.7226334698       41.0344250483  TIP3      4761            0.0000000000
     39200      4962  TIP3      OH2            -7.6479074868        3.8051154407       42.3006389271  TIP3      4762            0.0000000000
     39201      4962  TIP3      H1             -6.7589914744        3.6759657419       42.7021991507  TIP3      4762            0.0000000000
     39202      4962  TIP3      H2             -7.5586084603        4.6292544299       41.7966342008  TIP3      4762            0.0000000000
     39203      4963  TIP3      OH2           -17.2147196231        8.4154705352       48.2895771899  TIP3      4763            0.0000000000
     39204      4963  TIP3      H1            -16.4909358870        8.3922508819       47.6367530220  TIP3      4763            0.0000000000
     39205      4963  TIP3      H2            -17.0499482945        7.5840486267       48.7427946697  TIP3      4763            0.0000000000
     39206      4964  TIP3      OH2           -10.1483458200       10.5347737042       41.5384334885  TIP3      4764            0.0000000000
     39207      4964  TIP3      H1            -10.4883580097       11.3793197209       41.9010171419  TIP3      4764            0.0000000000
     39208      4964  TIP3      H2            -10.8762718946        9.9177779312       41.7658962989  TIP3      4764            0.0000000000
     39209      4965  TIP3      OH2            -3.6200749170        4.1630852638       42.5051077812  TIP3      4765            0.0000000000
     39210      4965  TIP3      H1             -3.4764439607        3.6999117574       41.6449754681  TIP3      4765            0.0000000000
     39211      4965  TIP3      H2             -2.9489580088        4.8031183854       42.1252284763  TIP3      4765            0.0000000000
     39212      4966  TIP3      OH2            -4.5618885484       12.7871556828       42.4479760941  TIP3      4766            0.0000000000
     39213      4966  TIP3      H1             -4.8340426332       11.9430810324       42.8464757565  TIP3      4766            0.0000000000
     39214      4966  TIP3      H2             -4.1470570058       12.5217479503       41.6113127888  TIP3      4766            0.0000000000
     39215      4967  TIP3      OH2            -7.5932351976        7.6541871094       48.8823405931  TIP3      4767            0.0000000000
     39216      4967  TIP3      H1             -8.3613546148        7.4408698973       49.4507367712  TIP3      4767            0.0000000000
     39217      4967  TIP3      H2             -7.0756218143        6.8233237553       48.8656315331  TIP3      4767            0.0000000000
     39218      4968  TIP3      OH2           -14.7649436992       11.9112084183       45.6854160745  TIP3      4768            0.0000000000
     39219      4968  TIP3      H1            -14.2691277002       12.7232736216       45.4955133567  TIP3      4768            0.0000000000
     39220      4968  TIP3      H2            -15.6506507326       12.1248459076       45.3535032923  TIP3      4768            0.0000000000
     39221      4969  TIP3      OH2           -18.9970237343        6.7296811619       40.2467019304  TIP3      4769            0.0000000000
     39222      4969  TIP3      H1            -18.3884558341        7.3920003856       40.6431616893  TIP3      4769            0.0000000000
     39223      4969  TIP3      H2            -19.8670628865        7.0736669724       40.5102172060  TIP3      4769            0.0000000000
     39224      4970  TIP3      OH2           -13.3270662722        9.5862385795       45.2170075223  TIP3      4770            0.0000000000
     39225      4970  TIP3      H1            -13.6725392652       10.4955501603       45.3067378092  TIP3      4770            0.0000000000
     39226      4970  TIP3      H2            -14.0735764325        9.0933662521       45.6123152448  TIP3      4770            0.0000000000
     39227      4971  TIP3      OH2           -14.6542649466       14.5867177305       44.7283856643  TIP3      4771            0.0000000000
     39228      4971  TIP3      H1            -15.6194762070       14.7128696269       44.8693347794  TIP3      4771            0.0000000000
     39229      4971  TIP3      H2            -14.2977357673       15.4147382369       45.1009333478  TIP3      4771            0.0000000000
     39230      4972  TIP3      OH2            -7.0249657738       10.8795500482       40.3309150276  TIP3      4772            0.0000000000
     39231      4972  TIP3      H1             -6.7292149071       10.3833295650       41.1234381193  TIP3      4772            0.0000000000
     39232      4972  TIP3      H2             -7.9739830500       10.6655815716       40.4073818671  TIP3      4772            0.0000000000
     39233      4973  TIP3      OH2            -2.6034693836       15.2027737780       40.5641760468  TIP3      4773            0.0000000000
     39234      4973  TIP3      H1             -1.8681563267       15.8254029811       40.3774708908  TIP3      4773            0.0000000000
     39235      4973  TIP3      H2             -3.2335839900       15.8499045585       40.9186558605  TIP3      4773            0.0000000000
     39236      4974  TIP3      OH2            -6.2648966894        9.4773656764       42.5814686747  TIP3      4774            0.0000000000
     39237      4974  TIP3      H1             -6.4896729899        8.6785155571       43.1150532353  TIP3      4774            0.0000000000
     39238      4974  TIP3      H2             -5.3061775784        9.4978958417       42.7421588647  TIP3      4774            0.0000000000
     39239      4975  TIP3      OH2           -12.8924342329       11.9015033882       38.8192663174  TIP3      4775            0.0000000000
     39240      4975  TIP3      H1            -12.8042299528       11.1320279901       38.2336546347  TIP3      4775            0.0000000000
     39241      4975  TIP3      H2            -13.3378191714       11.4922626784       39.5919079392  TIP3      4775            0.0000000000
     39242      4976  TIP3      OH2           -14.1433272849       11.4475110913       41.2864381983  TIP3      4776            0.0000000000
     39243      4976  TIP3      H1            -13.8601811890       10.9211582805       42.0459498289  TIP3      4776            0.0000000000
     39244      4976  TIP3      H2            -14.0373008000       12.3712177849       41.6112238914  TIP3      4776            0.0000000000
     39245      4977  TIP3      OH2           -17.3710873097        8.6483910397       41.2426162942  TIP3      4777            0.0000000000
     39246      4977  TIP3      H1            -18.0818729432        8.7480392946       41.9193994804  TIP3      4777            0.0000000000
     39247      4977  TIP3      H2            -16.9193733678        9.4935578990       41.4018862922  TIP3      4777            0.0000000000
     39248      4978  TIP3      OH2            -9.0066408066        0.9424632441       43.1700053959  TIP3      4778            0.0000000000
     39249      4978  TIP3      H1             -8.7687527485        1.4059174779       42.3412273257  TIP3      4778            0.0000000000
     39250      4978  TIP3      H2             -8.4316946582        1.3871591664       43.8080199391  TIP3      4778            0.0000000000
     39251      4979  TIP3      OH2           -11.3313922018       13.0957984902       41.9782844242  TIP3      4779            0.0000000000
     39252      4979  TIP3      H1            -12.1464704327       13.6309849443       42.0510437803  TIP3      4779            0.0000000000
     39253      4979  TIP3      H2            -10.8013705650       13.6405451129       41.3834412202  TIP3      4779            0.0000000000
     39254      4980  TIP3      OH2           -11.7783737304        2.6908746174       43.9804101624  TIP3      4780            0.0000000000
     39255      4980  TIP3      H1            -11.0005988838        3.2806359977       44.0380983285  TIP3      4780            0.0000000000
     39256      4980  TIP3      H2            -12.0511745153        2.5558682815       44.9072238381  TIP3      4780            0.0000000000
     39257      4981  TIP3      OH2           -10.9289154529       -0.2454755392       44.8681786499  TIP3      4781            0.0000000000
     39258      4981  TIP3      H1            -11.2510233582        0.3970591075       45.5275136903  TIP3      4781            0.0000000000
     39259      4981  TIP3      H2            -10.2341604893        0.3019855590       44.4301347736  TIP3      4781            0.0000000000
     39260      4982  TIP3      OH2           -13.9160223287       14.1354946088       42.0076091785  TIP3      4782            0.0000000000
     39261      4982  TIP3      H1            -13.8306186013       14.9494633699       41.4546427439  TIP3      4782            0.0000000000
     39262      4982  TIP3      H2            -14.1970659587       14.5001744262       42.8762332799  TIP3      4782            0.0000000000
     39263      4983  TIP3      OH2           -15.2750571626        0.8565649425       41.5803433463  TIP3      4783            0.0000000000
     39264      4983  TIP3      H1            -15.3262167241        1.7546521883       41.9661941880  TIP3      4783            0.0000000000
     39265      4983  TIP3      H2            -14.3673762563        0.6122076099       41.8468769562  TIP3      4783            0.0000000000
     39266      4984  TIP3      OH2            -6.4752739791        5.4281943251       47.9621916216  TIP3      4784            0.0000000000
     39267      4984  TIP3      H1             -7.2890190588        4.9394379654       47.7569034432  TIP3      4784            0.0000000000
     39268      4984  TIP3      H2             -5.9773340754        4.7397186565       48.4651985444  TIP3      4784            0.0000000000
     39269      4985  TIP3      OH2           -17.0425346920       11.3325449901       40.5987674125  TIP3      4785            0.0000000000
     39270      4985  TIP3      H1            -16.3607653553       11.9169097054       40.9470357348  TIP3      4785            0.0000000000
     39271      4985  TIP3      H2            -16.5251987946       10.8146115461       39.9509290856  TIP3      4785            0.0000000000
     39272      4986  TIP3      OH2           -18.7027080703        3.9655966236       39.7676574194  TIP3      4786            0.0000000000
     39273      4986  TIP3      H1            -18.6775015996        4.9289894690       39.9776872741  TIP3      4786            0.0000000000
     39274      4986  TIP3      H2            -19.5930316829        3.7940643106       39.4538367471  TIP3      4786            0.0000000000
     39275      4987  TIP3      OH2            -5.0831511276       14.8759483258       49.6021353232  TIP3      4787            0.0000000000
     39276      4987  TIP3      H1             -5.2596690149       15.5235752790       48.8811771804  TIP3      4787            0.0000000000
     39277      4987  TIP3      H2             -4.1392361459       14.8745273087       49.7573895882  TIP3      4787            0.0000000000
     39278      4988  TIP3      OH2           -17.8876905040       -1.2593025091       48.4499098877  TIP3      4788            0.0000000000
     39279      4988  TIP3      H1            -18.1029383405       -1.2310172045       47.4979912277  TIP3      4788            0.0000000000
     39280      4988  TIP3      H2            -18.2634447296       -2.1010257025       48.7438695271  TIP3      4788            0.0000000000
     39281      4989  TIP3      OH2           -18.8816915294       12.7686320687       44.7271275972  TIP3      4789            0.0000000000
     39282      4989  TIP3      H1            -19.7833484760       13.0861808213       44.5801487223  TIP3      4789            0.0000000000
     39283      4989  TIP3      H2            -18.4594469859       13.1180517655       43.9360380479  TIP3      4789            0.0000000000
     39284      4990  TIP3      OH2           -10.8863994639       13.7650947435       38.9709182540  TIP3      4790            0.0000000000
     39285      4990  TIP3      H1            -11.5968421469       13.1162532125       39.1776674774  TIP3      4790            0.0000000000
     39286      4990  TIP3      H2            -10.2002977041       13.1455937552       38.6882636316  TIP3      4790            0.0000000000
     39287      4991  TIP3      OH2            -6.2777914611       13.5738218313       39.2105008576  TIP3      4791            0.0000000000
     39288      4991  TIP3      H1             -6.0682326262       12.7116124759       39.6205605536  TIP3      4791            0.0000000000
     39289      4991  TIP3      H2             -5.5825401562       13.6695062393       38.5405356624  TIP3      4791            0.0000000000
     39290      4992  TIP3      OH2           -15.4636482992        9.4539074898       38.9430995237  TIP3      4792            0.0000000000
     39291      4992  TIP3      H1            -15.3502718556        8.7096724893       39.5598743877  TIP3      4792            0.0000000000
     39292      4992  TIP3      H2            -14.7001601016        9.3291437150       38.3551214431  TIP3      4792            0.0000000000
     39293      4993  TIP3      OH2           -10.0334979547       10.5475516434       38.7279448931  TIP3      4793            0.0000000000
     39294      4993  TIP3      H1            -10.3019820423       10.6357080698       39.6572472991  TIP3      4793            0.0000000000
     39295      4993  TIP3      H2            -10.2259627989        9.5926751825       38.5878618406  TIP3      4793            0.0000000000
     39296      4994  TIP3      OH2           -14.2199669841        7.4644931397       41.3852026944  TIP3      4794            0.0000000000
     39297      4994  TIP3      H1            -14.7700695604        6.9463997455       42.0062253807  TIP3      4794            0.0000000000
     39298      4994  TIP3      H2            -13.9716806222        6.7752348897       40.7386819357  TIP3      4794            0.0000000000
     39299      4995  TIP3      OH2           -13.1792914579        5.6377671229       39.6136959520  TIP3      4795            0.0000000000
     39300      4995  TIP3      H1            -13.3642308671        5.6439876208       38.6654616933  TIP3      4795            0.0000000000
     39301      4995  TIP3      H2            -12.2065862768        5.7505924813       39.6867350967  TIP3      4795            0.0000000000
     39302      4996  TIP3      OH2            -3.8546719768        8.0248365670       38.9908191332  TIP3      4796            0.0000000000
     39303      4996  TIP3      H1             -4.0618601733        7.6098204555       38.1393072806  TIP3      4796            0.0000000000
     39304      4996  TIP3      H2             -3.7842241122        8.9816606579       38.8039254685  TIP3      4796            0.0000000000
     39305      4997  TIP3      OH2           -13.3525051875       16.3875561719       40.6615365846  TIP3      4797            0.0000000000
     39306      4997  TIP3      H1            -12.3860347164       16.4782270006       40.7268991831  TIP3      4797            0.0000000000
     39307      4997  TIP3      H2            -13.5111089131       16.9904241810       39.9258872384  TIP3      4797            0.0000000000
     39308      4998  TIP3      OH2           -19.7950730459       10.9914693243       40.0697885708  TIP3      4798            0.0000000000
     39309      4998  TIP3      H1            -18.8416470508       11.0475865457       40.3233288440  TIP3      4798            0.0000000000
     39310      4998  TIP3      H2            -19.7340719964       10.3004505119       39.3798580994  TIP3      4798            0.0000000000
     39311      4999  TIP3      OH2           -21.0336527697       16.3578626650       45.0926281967  TIP3      4799            0.0000000000
     39312      4999  TIP3      H1            -21.7249876792       15.8368297541       44.6242590955  TIP3      4799            0.0000000000
     39313      4999  TIP3      H2            -20.7279216538       15.6869817435       45.7361678399  TIP3      4799            0.0000000000
     39314      5000  TIP3      OH2           -20.2583577270       14.4984403578       46.8972440764  TIP3      4800            0.0000000000
     39315      5000  TIP3      H1            -20.5222692532       13.5940762600       47.1257369107  TIP3      4800            0.0000000000
     39316      5000  TIP3      H2            -19.9159480187       14.8062992249       47.7766162918  TIP3      4800            0.0000000000
     39317      5001  TIP3      OH2            -3.3385669910        8.9685707989       42.9674142935  TIP3      4801            0.0000000000
     39318      5001  TIP3      H1             -2.4454754403        9.3119488449       43.1272404698  TIP3      4801            0.0000000000
     39319      5001  TIP3      H2             -3.3259225294        8.1865585773       43.5639944055  TIP3      4801            0.0000000000
     39320      5002  TIP3      OH2            -2.9873118177        7.0381871218       44.8289822827  TIP3      4802            0.0000000000
     39321      5002  TIP3      H1             -3.7061629797        6.4869004182       45.2052207639  TIP3      4802            0.0000000000
     39322      5002  TIP3      H2             -2.3537151663        7.1211871878       45.5745354099  TIP3      4802            0.0000000000
     39323      5003  TIP3      OH2            -3.1025090584        9.9514619530       49.6941182391  TIP3      4803            0.0000000000
     39324      5003  TIP3      H1             -2.3078706994        9.4362080638       49.4613682126  TIP3      4803            0.0000000000
     39325      5003  TIP3      H2             -2.9130376354       10.8911700955       49.5685551242  TIP3      4803            0.0000000000
     39326      5004  TIP3      OH2            -2.6323908642        6.9226686743       41.2352920096  TIP3      4804            0.0000000000
     39327      5004  TIP3      H1             -3.2493325974        7.1635687378       40.5164934401  TIP3      4804            0.0000000000
     39328      5004  TIP3      H2             -2.7911633322        7.5970803015       41.9020556947  TIP3      4804            0.0000000000
     39329      5005  TIP3      OH2            -4.5345760325        4.0743108106       39.6849214894  TIP3      4805            0.0000000000
     39330      5005  TIP3      H1             -4.1504643269        4.7078684222       39.0686470771  TIP3      4805            0.0000000000
     39331      5005  TIP3      H2             -4.4226928928        3.2179556627       39.2433174997  TIP3      4805            0.0000000000
     39332      5006  TIP3      OH2            -5.1332777078        5.4681163228       45.4354094493  TIP3      4806            0.0000000000
     39333      5006  TIP3      H1             -5.2712739291        4.5085934563       45.3505047458  TIP3      4806            0.0000000000
     39334      5006  TIP3      H2             -5.4904553645        5.6562179168       46.3234292944  TIP3      4806            0.0000000000
     39335      5007  TIP3      OH2           -20.1689156993        7.6188284374       49.3360319246  TIP3      4807            0.0000000000
     39336      5007  TIP3      H1            -19.8981976168        7.4779575757       48.4074257703  TIP3      4807            0.0000000000
     39337      5007  TIP3      H2            -19.3516328674        7.4044611436       49.8222869349  TIP3      4807            0.0000000000
     39338      5008  TIP3      OH2            -5.0187010139        1.4957548935       38.8404504949  TIP3      4808            0.0000000000
     39339      5008  TIP3      H1             -4.4394938920        1.1148243320       39.5277913636  TIP3      4808            0.0000000000
     39340      5008  TIP3      H2             -5.8942120294        1.1287801610       39.0376692506  TIP3      4808            0.0000000000
     39341      5009  TIP3      OH2            -5.5320220004        3.0355286800       43.8729383799  TIP3      4809            0.0000000000
     39342      5009  TIP3      H1             -5.1692685615        2.1301976741       43.9799064730  TIP3      4809            0.0000000000
     39343      5009  TIP3      H2             -4.7259354535        3.4781379236       43.4813376209  TIP3      4809            0.0000000000
     39344      5010  TIP3      OH2            -4.8671865588        3.7211804878       48.8700163752  TIP3      4810            0.0000000000
     39345      5010  TIP3      H1             -3.9068301598        3.7533366624       49.0676650803  TIP3      4810            0.0000000000
     39346      5010  TIP3      H2             -5.2359290631        3.6478858788       49.7752579836  TIP3      4810            0.0000000000
     39347      5011  TIP3      OH2            -4.8201196683        0.3242065208       43.9262862020  TIP3      4811            0.0000000000
     39348      5011  TIP3      H1             -4.5978749806       -0.1057507891       44.7790001316  TIP3      4811            0.0000000000
     39349      5011  TIP3      H2             -5.4137204916       -0.3146940247       43.4831521427  TIP3      4811            0.0000000000
     39350      5012  TIP3      OH2           -19.3447512456        1.1609521340       48.4645804252  TIP3      4812            0.0000000000
     39351      5012  TIP3      H1            -18.8927060377        0.3254282535       48.7076225645  TIP3      4812            0.0000000000
     39352      5012  TIP3      H2            -18.7767616250        1.8256759185       48.8908729208  TIP3      4812            0.0000000000
     39353      5013  TIP3      OH2           -21.0427247844        4.1259302353       49.5179580771  TIP3      4813            0.0000000000
     39354      5013  TIP3      H1            -20.5084074963        3.8944114483       48.7266411182  TIP3      4813            0.0000000000
     39355      5013  TIP3      H2            -20.6004615834        4.9626166450       49.7445145050  TIP3      4813            0.0000000000
     39356      5014  TIP3      OH2            -2.9864657455        0.3552655300       40.4844964748  TIP3      4814            0.0000000000
     39357      5014  TIP3      H1             -2.5613046732       -0.3255287979       39.9225228696  TIP3      4814            0.0000000000
     39358      5014  TIP3      H2             -2.3235564805        1.0624571112       40.5039711108  TIP3      4814            0.0000000000
     39359      5015  TIP3      OH2           -20.6671689752        0.4306455915       43.5885129473  TIP3      4815            0.0000000000
     39360      5015  TIP3      H1            -21.6097783151        0.5869041201       43.4246999860  TIP3      4815            0.0000000000
     39361      5015  TIP3      H2            -20.2492658521        0.9042316727       42.8513681803  TIP3      4815            0.0000000000
     39362      5016  TIP3      OH2            -5.9347979152       15.3784439842       45.5015950191  TIP3      4816            0.0000000000
     39363      5016  TIP3      H1             -5.2380830434       15.0419524202       44.9065477072  TIP3      4816            0.0000000000
     39364      5016  TIP3      H2             -5.4260834064       15.8591476644       46.1800117929  TIP3      4816            0.0000000000
     39365      5017  TIP3      OH2           -18.9075698472       15.0031598718       48.9905905720  TIP3      4817            0.0000000000
     39366      5017  TIP3      H1            -18.8129648728       14.8778238683       49.9432757741  TIP3      4817            0.0000000000
     39367      5017  TIP3      H2            -17.9725402814       14.8381446765       48.7526925833  TIP3      4817            0.0000000000
     39368      5018  TIP3      OH2           -16.6501299020       13.8744035471       47.9085166866  TIP3      4818            0.0000000000
     39369      5018  TIP3      H1            -16.7796388323       12.9246307116       48.0874410391  TIP3      4818            0.0000000000
     39370      5018  TIP3      H2            -15.7863900467       14.0076925357       48.3465138801  TIP3      4818            0.0000000000
     39371      5019  TIP3      OH2           -14.0907084884       14.3616375591       48.7671155963  TIP3      4819            0.0000000000
     39372      5019  TIP3      H1            -13.8653190417       13.4543991771       48.4954088519  TIP3      4819            0.0000000000
     39373      5019  TIP3      H2            -14.0199904999       14.2825210357       49.7197209039  TIP3      4819            0.0000000000
     39374      5020  TIP3      OH2           -10.5644330426        0.0579241000       47.9043335439  TIP3      4820            0.0000000000
     39375      5020  TIP3      H1            -11.2087020663       -0.5948919507       48.2373496200  TIP3      4820            0.0000000000
     39376      5020  TIP3      H2             -9.9949232562       -0.5243531444       47.3838715113  TIP3      4820            0.0000000000
     39377      5021  TIP3      OH2            -5.4199120875       -1.9024861590       47.9886718137  TIP3      4821            0.0000000000
     39378      5021  TIP3      H1             -4.8235670152       -1.3166735714       47.4694304344  TIP3      4821            0.0000000000
     39379      5021  TIP3      H2             -6.3124896585       -1.5540239953       47.7903714482  TIP3      4821            0.0000000000
     39380      5022  TIP3      OH2            -3.7392572950       -0.7086087865       46.2995057903  TIP3      4822            0.0000000000
     39381      5022  TIP3      H1             -3.0698363865       -1.2693222883       45.8415446239  TIP3      4822            0.0000000000
     39382      5022  TIP3      H2             -3.2508760862        0.1427874322       46.3610869182  TIP3      4822            0.0000000000
     39383      5023  TIP3      OH2           -18.1874832268       -1.3661035541       45.6947533557  TIP3      4823            0.0000000000
     39384      5023  TIP3      H1            -19.0027893938       -1.5819932257       45.2098683040  TIP3      4823            0.0000000000
     39385      5023  TIP3      H2            -17.7358016144       -2.2314111645       45.7219393066  TIP3      4823            0.0000000000
     39386      5024  TIP3      OH2           -19.4278079995       -1.6151674160       41.4879130864  TIP3      4824            0.0000000000
     39387      5024  TIP3      H1            -18.9331996716       -0.9643261678       40.9587053427  TIP3      4824            0.0000000000
     39388      5024  TIP3      H2            -19.9938650585       -1.0428104114       42.0302588963  TIP3      4824            0.0000000000
     39389      5025  TIP3      OH2           -13.7206011443       -1.4748900918       45.5586615018  TIP3      4825            0.0000000000
     39390      5025  TIP3      H1            -12.8329996277       -1.0862292958       45.4716867905  TIP3      4825            0.0000000000
     39391      5025  TIP3      H2            -13.7529571452       -1.6760108793       46.4947085432  TIP3      4825            0.0000000000
     39392      5026  TIP3      OH2            -7.9962474658       -1.4132927979       47.1539860372  TIP3      4826            0.0000000000
     39393      5026  TIP3      H1             -8.0544297027       -1.3059414671       46.2034949149  TIP3      4826            0.0000000000
     39394      5026  TIP3      H2             -8.4006373270       -2.2991365929       47.3128520717  TIP3      4826            0.0000000000
     39395      5027  TIP3      OH2            -6.7381834342       -1.3952941783       42.8629347804  TIP3      4827            0.0000000000
     39396      5027  TIP3      H1             -7.4920144048       -0.8067773615       42.7069888737  TIP3      4827            0.0000000000
     39397      5027  TIP3      H2             -7.1705286739       -2.2481315694       43.1017861189  TIP3      4827            0.0000000000
     39398      5028  TIP3      OH2           -19.4920539970       14.3592006959       42.5065942748  TIP3      4828            0.0000000000
     39399      5028  TIP3      H1            -20.1715820241       14.3078307651       41.8079826979  TIP3      4828            0.0000000000
     39400      5028  TIP3      H2            -19.5276611882       15.3076152479       42.6849658590  TIP3      4828            0.0000000000
     39401      5029  TIP3      OH2           -17.5868977911        0.3425912054       39.9764352092  TIP3      4829            0.0000000000
     39402      5029  TIP3      H1            -17.0618032512       -0.2970516275       39.4708303173  TIP3      4829            0.0000000000
     39403      5029  TIP3      H2            -16.9327177945        0.6456731228       40.6338261603  TIP3      4829            0.0000000000
     39404      5030  TIP3      OH2           -12.5724522589        0.5661625226       42.4043724629  TIP3      4830            0.0000000000
     39405      5030  TIP3      H1            -12.3205690989       -0.0081002681       43.1459109003  TIP3      4830            0.0000000000
     39406      5030  TIP3      H2            -12.5004055823        1.4355830112       42.8591446081  TIP3      4830            0.0000000000
     39407      5031  TIP3      OH2           -10.6283731333       15.6483263896       40.8554226063  TIP3      4831            0.0000000000
     39408      5031  TIP3      H1             -9.7287048229       15.8844966474       40.6095731225  TIP3      4831            0.0000000000
     39409      5031  TIP3      H2            -10.8785512969       15.1235667980       40.0624341057  TIP3      4831            0.0000000000
     39410      5032  TIP3      OH2            -4.0033456581       15.1363071790       43.5849272225  TIP3      4832            0.0000000000
     39411      5032  TIP3      H1             -4.1207660933       14.3366201934       43.0186890765  TIP3      4832            0.0000000000
     39412      5032  TIP3      H2             -3.9278119580       15.8732160606       42.9523120111  TIP3      4832            0.0000000000
     39413      5033  TIP3      OH2           -17.7189011162       15.3193682576       39.4563061684  TIP3      4833            0.0000000000
     39414      5033  TIP3      H1            -17.9803678173       15.5566229219       40.3593735418  TIP3      4833            0.0000000000
     39415      5033  TIP3      H2            -16.9361917265       14.7530781956       39.6099442234  TIP3      4833            0.0000000000
     39416      5034  TIP3      OH2             9.7432434374        7.7597554299       45.6300403286  TIP3      4834            0.0000000000
     39417      5034  TIP3      H1              9.7437689633        8.7429948523       45.6007621533  TIP3      4834            0.0000000000
     39418      5034  TIP3      H2              9.0175501013        7.5366996941       45.0245673693  TIP3      4834            0.0000000000
     39419      5035  TIP3      OH2             8.6223277974        7.0218318583       49.1377681444  TIP3      4835            0.0000000000
     39420      5035  TIP3      H1              8.5520755057        6.3763449828       49.8638680734  TIP3      4835            0.0000000000
     39421      5035  TIP3      H2              8.3141154038        6.5437809288       48.3547101568  TIP3      4835            0.0000000000
     39422      5036  TIP3      OH2            12.1987412712        9.9322418008       47.3521411923  TIP3      4836            0.0000000000
     39423      5036  TIP3      H1             11.8583651385        9.2138669715       47.9127300783  TIP3      4836            0.0000000000
     39424      5036  TIP3      H2             12.3361496419       10.6214591566       48.0598298673  TIP3      4836            0.0000000000
     39425      5037  TIP3      OH2             1.8761538334       11.2145112990       49.0556370267  TIP3      4837            0.0000000000
     39426      5037  TIP3      H1              1.5724690669       10.3044107422       48.8666135046  TIP3      4837            0.0000000000
     39427      5037  TIP3      H2              2.8202840294       10.9872631670       49.2189338948  TIP3      4837            0.0000000000
     39428      5038  TIP3      OH2            -1.4962328913        4.6930618882       44.7062456069  TIP3      4838            0.0000000000
     39429      5038  TIP3      H1             -1.9130985452        5.5646498782       44.5951584278  TIP3      4838            0.0000000000
     39430      5038  TIP3      H2             -2.0429952463        4.1741634159       44.0981739254  TIP3      4838            0.0000000000
     39431      5039  TIP3      OH2            -0.7882585312        6.9105370693       46.7699453882  TIP3      4839            0.0000000000
     39432      5039  TIP3      H1             -0.5119062086        6.1219975438       47.2678997393  TIP3      4839            0.0000000000
     39433      5039  TIP3      H2             -0.0502505580        7.0314348614       46.1615523944  TIP3      4839            0.0000000000
     39434      5040  TIP3      OH2             9.4040142603       15.1321266917       47.6885999255  TIP3      4840            0.0000000000
     39435      5040  TIP3      H1             10.0610676531       14.4639414955       47.3652218345  TIP3      4840            0.0000000000
     39436      5040  TIP3      H2              9.2186910709       14.7946252276       48.5629240900  TIP3      4840            0.0000000000
     39437      5041  TIP3      OH2             7.0347280826        9.4810254856       49.5643256557  TIP3      4841            0.0000000000
     39438      5041  TIP3      H1              7.3714889043        8.7891824786       48.9721391787  TIP3      4841            0.0000000000
     39439      5041  TIP3      H2              7.7886939858        9.5490344653       50.1579630524  TIP3      4841            0.0000000000
     39440      5042  TIP3      OH2            10.1900474752        3.8897384209       49.8930772679  TIP3      4842            0.0000000000
     39441      5042  TIP3      H1             10.3046528164        2.9257994232       49.9040856325  TIP3      4842            0.0000000000
     39442      5042  TIP3      H2             10.0694539816        4.0377054384       48.9307579089  TIP3      4842            0.0000000000
     39443      5043  TIP3      OH2             3.2824719525        1.9652696065       47.1073829557  TIP3      4843            0.0000000000
     39444      5043  TIP3      H1              3.3695835872        2.8134981615       46.6367447252  TIP3      4843            0.0000000000
     39445      5043  TIP3      H2              2.8484647869        1.4031220745       46.4250065516  TIP3      4843            0.0000000000
     39446      5044  TIP3      OH2            10.9839826914        2.0654948569       45.4768061454  TIP3      4844            0.0000000000
     39447      5044  TIP3      H1             11.6260006084        1.7440279098       46.1564826702  TIP3      4844            0.0000000000
     39448      5044  TIP3      H2             11.5697562937        2.6404018034       44.9664770717  TIP3      4844            0.0000000000
     39449      5045  TIP3      OH2            -0.1313803368        4.3519175834       47.8627686325  TIP3      4845            0.0000000000
     39450      5045  TIP3      H1              0.5530189693        3.8260236102       48.3254728118  TIP3      4845            0.0000000000
     39451      5045  TIP3      H2              0.0144233396        4.0601717721       46.9443030357  TIP3      4845            0.0000000000
     39452      5046  TIP3      OH2             5.0514852358        5.9277451019       47.1586440101  TIP3      4846            0.0000000000
     39453      5046  TIP3      H1              5.7209319247        5.3482622000       47.5694799821  TIP3      4846            0.0000000000
     39454      5046  TIP3      H2              4.5262986136        5.2812888158       46.6463889026  TIP3      4846            0.0000000000
     39455      5047  TIP3      OH2             9.4423039059       10.3577746031       44.7364474020  TIP3      4847            0.0000000000
     39456      5047  TIP3      H1              9.2043271933       10.0818627331       43.8435235785  TIP3      4847            0.0000000000
     39457      5047  TIP3      H2              9.1549211838       11.2961598043       44.7790857372  TIP3      4847            0.0000000000
     39458      5048  TIP3      OH2            12.7801246722        1.4023092543       47.4541590765  TIP3      4848            0.0000000000
     39459      5048  TIP3      H1             12.5808991124        0.6587898549       48.0402771588  TIP3      4848            0.0000000000
     39460      5048  TIP3      H2             13.4329910652        1.8454848787       48.0246147902  TIP3      4848            0.0000000000
     39461      5049  TIP3      OH2             1.7417341783        2.7391992085       49.1311540551  TIP3      4849            0.0000000000
     39462      5049  TIP3      H1              2.3085555125        3.4319617701       49.4678823466  TIP3      4849            0.0000000000
     39463      5049  TIP3      H2              2.2662866336        2.3118884511       48.4238217305  TIP3      4849            0.0000000000
     39464      5050  TIP3      OH2            -0.7830798732       10.1337183955       43.0287022201  TIP3      4850            0.0000000000
     39465      5050  TIP3      H1             -1.0476256814       10.4759119887       42.1615755195  TIP3      4850            0.0000000000
     39466      5050  TIP3      H2             -0.7084632543       10.9623727838       43.5433139499  TIP3      4850            0.0000000000
     39467      5051  TIP3      OH2            12.8712078912       11.5229885218       49.2789424639  TIP3      4851            0.0000000000
     39468      5051  TIP3      H1             12.0831330609       11.6361732361       49.8529307964  TIP3      4851            0.0000000000
     39469      5051  TIP3      H2             13.2301759957       12.3974566592       49.4597945058  TIP3      4851            0.0000000000
     39470      5052  TIP3      OH2             6.1365594230       -1.7544144208       48.5994546932  TIP3      4852            0.0000000000
     39471      5052  TIP3      H1              6.0454953172       -2.7258408863       48.5700101343  TIP3      4852            0.0000000000
     39472      5052  TIP3      H2              5.2481605149       -1.4724985259       48.9027569742  TIP3      4852            0.0000000000
     39473      5053  TIP3      OH2            11.0457757599       13.5982600385       46.3495634523  TIP3      4853            0.0000000000
     39474      5053  TIP3      H1             11.4968598747       12.8779822513       45.8563449900  TIP3      4853            0.0000000000
     39475      5053  TIP3      H2             11.5033918573       14.3898044497       45.9945751010  TIP3      4853            0.0000000000
     39476      5054  TIP3      OH2            12.2888001581       11.5456482338       44.9132286590  TIP3      4854            0.0000000000
     39477      5054  TIP3      H1             11.9937334876       10.8374040849       44.3155936370  TIP3      4854            0.0000000000
     39478      5054  TIP3      H2             12.3254132555       11.0447057916       45.7506663305  TIP3      4854            0.0000000000
     39479      5055  TIP3      OH2             8.4129896282        7.0027599551       43.1485892150  TIP3      4855            0.0000000000
     39480      5055  TIP3      H1              7.7155283276        7.5724680067       42.7806391390  TIP3      4855            0.0000000000
     39481      5055  TIP3      H2              9.1165224850        7.0935602181       42.4791544441  TIP3      4855            0.0000000000
     39482      5056  TIP3      OH2             8.4595447533        5.5245306186       40.1791672835  TIP3      4856            0.0000000000
     39483      5056  TIP3      H1              9.1902138412        5.5629826690       40.8110608559  TIP3      4856            0.0000000000
     39484      5056  TIP3      H2              8.8253572584        4.8874484949       39.5569270872  TIP3      4856            0.0000000000
     39485      5057  TIP3      OH2            11.8595073133        7.2153957498       44.0516622360  TIP3      4857            0.0000000000
     39486      5057  TIP3      H1             11.1096934732        7.4547888158       44.6462340696  TIP3      4857            0.0000000000
     39487      5057  TIP3      H2             12.3225046473        6.5356078354       44.5676592897  TIP3      4857            0.0000000000
     39488      5058  TIP3      OH2             3.4535329952        7.8682266359       45.9840674467  TIP3      4858            0.0000000000
     39489      5058  TIP3      H1              3.1285211282        7.4882998338       45.1343016604  TIP3      4858            0.0000000000
     39490      5058  TIP3      H2              4.0946519839        7.1872711797       46.2746485414  TIP3      4858            0.0000000000
     39491      5059  TIP3      OH2             4.8615861476       11.3242297422       48.6217480060  TIP3      4859            0.0000000000
     39492      5059  TIP3      H1              4.7882941468       10.7463001445       47.8486375305  TIP3      4859            0.0000000000
     39493      5059  TIP3      H2              5.5715291744       10.8921551443       49.1269878610  TIP3      4859            0.0000000000
     39494      5060  TIP3      OH2             3.6842602911        6.7030172351       49.4847780916  TIP3      4860            0.0000000000
     39495      5060  TIP3      H1              4.3249018322        6.7718643099       48.7624446623  TIP3      4860            0.0000000000
     39496      5060  TIP3      H2              4.1422491937        7.1628945899       50.2082385008  TIP3      4860            0.0000000000
     39497      5061  TIP3      OH2            10.7315083787        6.4088702267       41.7257195752  TIP3      4861            0.0000000000
     39498      5061  TIP3      H1             11.2819992274        6.5948097225       42.5304022738  TIP3      4861            0.0000000000
     39499      5061  TIP3      H2             11.1825043239        6.9086109407       41.0071619292  TIP3      4861            0.0000000000
     39500      5062  TIP3      OH2             8.4393786965       13.1233574496       45.1837700192  TIP3      4862            0.0000000000
     39501      5062  TIP3      H1              8.8746009953       13.4360954191       45.9857000766  TIP3      4862            0.0000000000
     39502      5062  TIP3      H2              7.8825247434       13.8776346998       44.9524587469  TIP3      4862            0.0000000000
     39503      5063  TIP3      OH2            14.4531555487       -1.8561241574       41.6256652344  TIP3      4863            0.0000000000
     39504      5063  TIP3      H1             13.5081285791       -1.7381638001       41.8731067236  TIP3      4863            0.0000000000
     39505      5063  TIP3      H2             14.6642619277       -1.0032610139       41.2086212773  TIP3      4863            0.0000000000
     39506      5064  TIP3      OH2             2.4282365503        6.9032572431       43.6142278040  TIP3      4864            0.0000000000
     39507      5064  TIP3      H1              2.1329727985        7.6691186478       43.0789824685  TIP3      4864            0.0000000000
     39508      5064  TIP3      H2              1.7898092399        6.2267114895       43.3588134586  TIP3      4864            0.0000000000
     39509      5065  TIP3      OH2            15.5675466848       12.5008495617       39.9790774800  TIP3      4865            0.0000000000
     39510      5065  TIP3      H1             15.7358807977       13.4428527566       40.1510552956  TIP3      4865            0.0000000000
     39511      5065  TIP3      H2             16.4906906749       12.1849150217       39.9788909471  TIP3      4865            0.0000000000
     39512      5066  TIP3      OH2            -1.6464961226       12.2411451191       49.0680416361  TIP3      4866            0.0000000000
     39513      5066  TIP3      H1             -0.7457337833       11.9493569095       49.2613127192  TIP3      4866            0.0000000000
     39514      5066  TIP3      H2             -1.8243650056       12.9010084778       49.7425423836  TIP3      4866            0.0000000000
     39515      5067  TIP3      OH2             7.9258279043       16.0474537417       43.6114863120  TIP3      4867            0.0000000000
     39516      5067  TIP3      H1              7.8126469883       15.9707215273       42.6475916910  TIP3      4867            0.0000000000
     39517      5067  TIP3      H2              7.9257042927       17.0097935587       43.7670677690  TIP3      4867            0.0000000000
     39518      5068  TIP3      OH2             1.5824510978       14.9063324602       45.4125255432  TIP3      4868            0.0000000000
     39519      5068  TIP3      H1              1.7225852532       14.5105912773       46.3027130341  TIP3      4868            0.0000000000
     39520      5068  TIP3      H2              0.7186146452       14.5177762232       45.2029228175  TIP3      4868            0.0000000000
     39521      5069  TIP3      OH2            10.9881754451       15.2688971415       40.5908618540  TIP3      4869            0.0000000000
     39522      5069  TIP3      H1             11.4356409861       14.5054694132       40.1592255290  TIP3      4869            0.0000000000
     39523      5069  TIP3      H2             11.0170456407       15.0050955347       41.5373698914  TIP3      4869            0.0000000000
     39524      5070  TIP3      OH2            10.6754541865       15.1957762442       43.3701749773  TIP3      4870            0.0000000000
     39525      5070  TIP3      H1              9.7129084795       15.2716417899       43.5396560731  TIP3      4870            0.0000000000
     39526      5070  TIP3      H2             10.9063588243       14.4525263479       43.9486408932  TIP3      4870            0.0000000000
     39527      5071  TIP3      OH2             3.4679871418       -0.9053575508       49.4207009284  TIP3      4871            0.0000000000
     39528      5071  TIP3      H1              2.6002373665       -1.0132785057       48.9656703716  TIP3      4871            0.0000000000
     39529      5071  TIP3      H2              3.3970907225       -0.0386689477       49.8274010238  TIP3      4871            0.0000000000
     39530      5072  TIP3      OH2            12.1855046843        7.4400543311       39.5499560142  TIP3      4872            0.0000000000
     39531      5072  TIP3      H1             12.1576900773        7.2560353666       38.5826146002  TIP3      4872            0.0000000000
     39532      5072  TIP3      H2             13.0393050899        7.8952506245       39.5943582989  TIP3      4872            0.0000000000
     39533      5073  TIP3      OH2             7.7879556813        1.4397970397       40.0050992718  TIP3      4873            0.0000000000
     39534      5073  TIP3      H1              7.6654550818        1.4618689461       40.9667291114  TIP3      4873            0.0000000000
     39535      5073  TIP3      H2              7.6348998303        0.5407999535       39.6631458679  TIP3      4873            0.0000000000
     39536      5074  TIP3      OH2             3.5438572507        4.2258738566       45.4777980233  TIP3      4874            0.0000000000
     39537      5074  TIP3      H1              2.6109706909        3.9425181130       45.3616981776  TIP3      4874            0.0000000000
     39538      5074  TIP3      H2              3.9189306766        3.9255522397       44.6286732542  TIP3      4874            0.0000000000
     39539      5075  TIP3      OH2             9.0733167735        4.7119567532       44.2647418254  TIP3      4875            0.0000000000
     39540      5075  TIP3      H1              8.6816517395        5.5429665326       43.9122304512  TIP3      4875            0.0000000000
     39541      5075  TIP3      H2              9.7619556587        4.5424832029       43.6023462480  TIP3      4875            0.0000000000
     39542      5076  TIP3      OH2            10.0862718638        4.1864871164       47.1229685220  TIP3      4876            0.0000000000
     39543      5076  TIP3      H1              9.8487241228        4.7646466291       46.3742918813  TIP3      4876            0.0000000000
     39544      5076  TIP3      H2             10.2262002586        3.3532211846       46.6252349717  TIP3      4876            0.0000000000
     39545      5077  TIP3      OH2             4.6175592187        1.6895409468       39.1892397275  TIP3      4877            0.0000000000
     39546      5077  TIP3      H1              4.0692557906        1.3464652780       39.9241426201  TIP3      4877            0.0000000000
     39547      5077  TIP3      H2              3.9445497561        2.1789844034       38.6746676572  TIP3      4877            0.0000000000
     39548      5078  TIP3      OH2            -2.1360499861        1.4770813187       46.2541773181  TIP3      4878            0.0000000000
     39549      5078  TIP3      H1             -1.4729832270        1.4276651776       46.9777478008  TIP3      4878            0.0000000000
     39550      5078  TIP3      H2             -1.6837845752        1.0692110182       45.4933860433  TIP3      4878            0.0000000000
     39551      5079  TIP3      OH2            -0.5831419159        1.7789223273       41.9378423120  TIP3      4879            0.0000000000
     39552      5079  TIP3      H1             -0.2607741938        2.3877341465       41.2428976626  TIP3      4879            0.0000000000
     39553      5079  TIP3      H2             -1.3551446542        2.3661713394       42.0916120793  TIP3      4879            0.0000000000
     39554      5080  TIP3      OH2             6.1262586325        1.7972066518       46.4866567148  TIP3      4880            0.0000000000
     39555      5080  TIP3      H1              5.1949188326        1.7499148427       46.7701203125  TIP3      4880            0.0000000000
     39556      5080  TIP3      H2              6.6052697229        1.5916763132       47.3029542199  TIP3      4880            0.0000000000
     39557      5081  TIP3      OH2             0.9432208328        3.3133965517       45.3400127723  TIP3      4881            0.0000000000
     39558      5081  TIP3      H1              0.0447972252        3.4678931825       44.9756268560  TIP3      4881            0.0000000000
     39559      5081  TIP3      H2              1.2073533684        2.4714814597       44.9333252868  TIP3      4881            0.0000000000
     39560      5082  TIP3      OH2             4.5667592582        3.3537657673       42.9917552105  TIP3      4882            0.0000000000
     39561      5082  TIP3      H1              5.5066340412        3.5063438167       43.1918042106  TIP3      4882            0.0000000000
     39562      5082  TIP3      H2              4.3186091545        4.0610246941       42.3632414532  TIP3      4882            0.0000000000
     39563      5083  TIP3      OH2            10.5198324981        0.9474221677       49.5962644921  TIP3      4883            0.0000000000
     39564      5083  TIP3      H1              9.9253037005        1.0423647577       50.3607665824  TIP3      4883            0.0000000000
     39565      5083  TIP3      H2              9.9048476637        0.7207956993       48.9009503354  TIP3      4883            0.0000000000
     39566      5084  TIP3      OH2             3.3214252492        4.4666380440       40.6000026561  TIP3      4884            0.0000000000
     39567      5084  TIP3      H1              2.7133895355        4.1865623696       39.8839170347  TIP3      4884            0.0000000000
     39568      5084  TIP3      H2              4.0836044972        4.7623432498       40.0850731006  TIP3      4884            0.0000000000
     39569      5085  TIP3      OH2             7.3475768725        4.4725906512       48.3952685747  TIP3      4885            0.0000000000
     39570      5085  TIP3      H1              7.9849049789        3.9902542245       47.8418758993  TIP3      4885            0.0000000000
     39571      5085  TIP3      H2              7.2906554787        3.9242627039       49.1852127078  TIP3      4885            0.0000000000
     39572      5086  TIP3      OH2             2.4084785507        0.6631489508       44.8426458258  TIP3      4886            0.0000000000
     39573      5086  TIP3      H1              2.0707551143       -0.2541892594       44.8315862400  TIP3      4886            0.0000000000
     39574      5086  TIP3      H2              3.1915851768        0.5833643785       44.2872825119  TIP3      4886            0.0000000000
     39575      5087  TIP3      OH2             6.6184326032        9.0636082381       42.5134317929  TIP3      4887            0.0000000000
     39576      5087  TIP3      H1              5.8179471844        8.6041475444       42.1759951974  TIP3      4887            0.0000000000
     39577      5087  TIP3      H2              6.3898045266        9.1934450273       43.4558611677  TIP3      4887            0.0000000000
     39578      5088  TIP3      OH2            10.4210930686        1.8624112359       40.7153630798  TIP3      4888            0.0000000000
     39579      5088  TIP3      H1              9.4961396859        2.0674319619       40.5264572548  TIP3      4888            0.0000000000
     39580      5088  TIP3      H2             10.7990098020        2.7199421400       41.0309834923  TIP3      4888            0.0000000000
     39581      5089  TIP3      OH2            11.1652239637        3.7870294931       42.3102894212  TIP3      4889            0.0000000000
     39582      5089  TIP3      H1             12.0512846772        3.6626715925       42.7176608968  TIP3      4889            0.0000000000
     39583      5089  TIP3      H2             11.2684193131        4.6118232524       41.8020778765  TIP3      4889            0.0000000000
     39584      5090  TIP3      OH2             1.6295064606        8.4091959073       48.2606516068  TIP3      4890            0.0000000000
     39585      5090  TIP3      H1              2.3838189494        8.3910747593       47.6468005733  TIP3      4890            0.0000000000
     39586      5090  TIP3      H2              1.8064063429        7.6008028168       48.7581079544  TIP3      4890            0.0000000000
     39587      5091  TIP3      OH2             8.7070564427       10.5335038862       41.5355596011  TIP3      4891            0.0000000000
     39588      5091  TIP3      H1              8.3663656980       11.3790744399       41.8989125515  TIP3      4891            0.0000000000
     39589      5091  TIP3      H2              7.9818783252        9.9153949910       41.7682145240  TIP3      4891            0.0000000000
     39590      5092  TIP3      OH2            16.0936579702        3.9324699107       42.0996960018  TIP3      4892            0.0000000000
     39591      5092  TIP3      H1             15.5197279969        3.6529035864       41.3563787189  TIP3      4892            0.0000000000
     39592      5092  TIP3      H2             16.1579434629        4.8823399441       41.8330050593  TIP3      4892            0.0000000000
     39593      5093  TIP3      OH2            14.3291557899       12.7711913303       42.4787795227  TIP3      4893            0.0000000000
     39594      5093  TIP3      H1             14.0108962270       11.9322384624       42.8351223102  TIP3      4893            0.0000000000
     39595      5093  TIP3      H2             14.6912957974       12.5447146319       41.6069986443  TIP3      4893            0.0000000000
     39596      5094  TIP3      OH2            11.2627177311        7.6548473238       48.8834470309  TIP3      4894            0.0000000000
     39597      5094  TIP3      H1             10.4941921689        7.4408032996       49.4511932377  TIP3      4894            0.0000000000
     39598      5094  TIP3      H2             11.7801593127        6.8229801973       48.8658992794  TIP3      4894            0.0000000000
     39599      5095  TIP3      OH2             4.1022927687       11.9214183972       45.7089834689  TIP3      4895            0.0000000000
     39600      5095  TIP3      H1              4.6008889885       12.7283304820       45.5006050495  TIP3      4895            0.0000000000
     39601      5095  TIP3      H2              3.2261093254       12.1447340439       45.3671812013  TIP3      4895            0.0000000000
     39602      5096  TIP3      OH2            -0.1034417606        6.9001476123       40.1511488002  TIP3      4896            0.0000000000
     39603      5096  TIP3      H1              0.4569387571        7.4311142411       40.7319169777  TIP3      4896            0.0000000000
     39604      5096  TIP3      H2             -1.0068774642        6.9829699487       40.5365023016  TIP3      4896            0.0000000000
     39605      5097  TIP3      OH2             5.5063642862        9.5923447326       45.1925395807  TIP3      4897            0.0000000000
     39606      5097  TIP3      H1              5.1979537645       10.5069877826       45.3186204068  TIP3      4897            0.0000000000
     39607      5097  TIP3      H2              4.7927079042        9.0958746495       45.6342791536  TIP3      4897            0.0000000000
     39608      5098  TIP3      OH2             4.2014553119       14.5868041116       44.7282811031  TIP3      4898            0.0000000000
     39609      5098  TIP3      H1              3.2365207050       14.7132911149       44.8691128193  TIP3      4898            0.0000000000
     39610      5098  TIP3      H2              4.5589609836       15.4147297388       45.1004363490  TIP3      4898            0.0000000000
     39611      5099  TIP3      OH2            11.8302871868       10.8424590294       40.3321236898  TIP3      4899            0.0000000000
     39612      5099  TIP3      H1             12.1238894368       10.3664749364       41.1350120912  TIP3      4899            0.0000000000
     39613      5099  TIP3      H2             10.8765440027       10.6569223262       40.4116621919  TIP3      4899            0.0000000000
     39614      5100  TIP3      OH2            16.2815078503       15.1922019550       40.5838332535  TIP3      4900            0.0000000000
     39615      5100  TIP3      H1             16.9643609157       15.8570788473       40.3701078886  TIP3      4900            0.0000000000
     39616      5100  TIP3      H2             15.5706089836       15.8041070200       40.8746321537  TIP3      4900            0.0000000000
     39617      5101  TIP3      OH2            12.6045553605        9.4721252445       42.5792955862  TIP3      4901            0.0000000000
     39618      5101  TIP3      H1             12.3657456049        8.6882233732       43.1251106763  TIP3      4901            0.0000000000
     39619      5101  TIP3      H2             13.5589425125        9.5221902847       42.7542426698  TIP3      4901            0.0000000000
     39620      5102  TIP3      OH2             5.9580217523       11.9118815391       38.8290941230  TIP3      4902            0.0000000000
     39621      5102  TIP3      H1              6.0527596322       11.1486672970       38.2358785013  TIP3      4902            0.0000000000
     39622      5102  TIP3      H2              5.5122806790       11.4822651220       39.5911960305  TIP3      4902            0.0000000000
     39623      5103  TIP3      OH2             4.7150439010       11.4349257070       41.2787273460  TIP3      4903            0.0000000000
     39624      5103  TIP3      H1              4.9991281264       10.9240118887       42.0473208566  TIP3      4903            0.0000000000
     39625      5103  TIP3      H2              4.8188925571       12.3615360940       41.6001976006  TIP3      4903            0.0000000000
     39626      5104  TIP3      OH2             1.2758637697        8.7072691242       41.7443143044  TIP3      4904            0.0000000000
     39627      5104  TIP3      H1              0.5529822823        9.0718364733       42.2950030125  TIP3      4904            0.0000000000
     39628      5104  TIP3      H2              1.7924553786        9.4908399995       41.4959924058  TIP3      4904            0.0000000000
     39629      5105  TIP3      OH2             9.8063005079        0.9694236504       43.1661254857  TIP3      4905            0.0000000000
     39630      5105  TIP3      H1             10.1070088253        1.4129284068       42.3471492871  TIP3      4905            0.0000000000
     39631      5105  TIP3      H2             10.4111133871        1.3691545624       43.8112332746  TIP3      4905            0.0000000000
     39632      5106  TIP3      OH2             7.5322255491       13.1001833966       41.9739955719  TIP3      4906            0.0000000000
     39633      5106  TIP3      H1              6.7141644153       13.6331726476       42.0477604382  TIP3      4906            0.0000000000
     39634      5106  TIP3      H2              8.0716187093       13.6517927013       41.3892626634  TIP3      4906            0.0000000000
     39635      5107  TIP3      OH2             7.1151288375        2.7137349356       43.9740481248  TIP3      4907            0.0000000000
     39636      5107  TIP3      H1              7.8802241247        3.3177242446       44.0661327635  TIP3      4907            0.0000000000
     39637      5107  TIP3      H2              6.8184186140        2.5799927812       44.8980349624  TIP3      4907            0.0000000000
     39638      5108  TIP3      OH2             7.9107324994       -0.2395533246       44.8112216020  TIP3      4908            0.0000000000
     39639      5108  TIP3      H1              7.6090079434        0.3657802753       45.5208836019  TIP3      4908            0.0000000000
     39640      5108  TIP3      H2              8.6515776158        0.3032649709       44.4488538651  TIP3      4908            0.0000000000
     39641      5109  TIP3      OH2             4.9355013127       14.1338306518       42.0054823678  TIP3      4909            0.0000000000
     39642      5109  TIP3      H1              5.0260250735       14.9483057560       41.4540468316  TIP3      4909            0.0000000000
     39643      5109  TIP3      H2              4.6628404041       14.5005010837       42.8757355855  TIP3      4909            0.0000000000
     39644      5110  TIP3      OH2             3.6258293776        0.8790432733       41.5357951904  TIP3      4910            0.0000000000
     39645      5110  TIP3      H1              3.4607712464        1.7527754773       41.9604362189  TIP3      4910            0.0000000000
     39646      5110  TIP3      H2              4.4304494921        0.6457198813       42.0103669970  TIP3      4910            0.0000000000
     39647      5111  TIP3      OH2            12.3728266128        5.4310646561       47.9743679564  TIP3      4911            0.0000000000
     39648      5111  TIP3      H1             11.5643664854        4.9398269774       47.7553065622  TIP3      4911            0.0000000000
     39649      5111  TIP3      H2             12.8632232559        4.7418110049       48.4790943947  TIP3      4911            0.0000000000
     39650      5112  TIP3      OH2             1.8087124847       11.3000641505       40.5975896806  TIP3      4912            0.0000000000
     39651      5112  TIP3      H1              2.4811498618       11.9061482775       40.9493996957  TIP3      4912            0.0000000000
     39652      5112  TIP3      H2              2.3607366244       10.8236098955       39.9495357740  TIP3      4912            0.0000000000
     39653      5113  TIP3      OH2             0.6036405214        4.1194538980       39.1984138451  TIP3      4913            0.0000000000
     39654      5113  TIP3      H1              0.3874704216        4.8155585493       39.8581495040  TIP3      4913            0.0000000000
     39655      5113  TIP3      H2             -0.2850489053        3.7255704613       39.3467067835  TIP3      4913            0.0000000000
     39656      5114  TIP3      OH2            13.7702885533       14.8869622477       49.6072090068  TIP3      4914            0.0000000000
     39657      5114  TIP3      H1             13.5975417113       15.5253293803       48.8784523253  TIP3      4914            0.0000000000
     39658      5114  TIP3      H2             14.7155041581       14.8722405064       49.7543251464  TIP3      4914            0.0000000000
     39659      5115  TIP3      OH2             0.9668903923       -1.2591901312       48.4490460800  TIP3      4915            0.0000000000
     39660      5115  TIP3      H1              0.7520426452       -1.2313261130       47.4975392466  TIP3      4915            0.0000000000
     39661      5115  TIP3      H2              0.5924104454       -2.1011692926       48.7438662434  TIP3      4915            0.0000000000
     39662      5116  TIP3      OH2            -0.0816747148       12.6803869575       44.6563336244  TIP3      4916            0.0000000000
     39663      5116  TIP3      H1             -0.9285458831       13.1419220583       44.5877460389  TIP3      4916            0.0000000000
     39664      5116  TIP3      H2              0.4080459124       13.1384087693       43.9594621202  TIP3      4916            0.0000000000
     39665      5117  TIP3      OH2             7.9503009569       13.7617400871       38.9510682894  TIP3      4917            0.0000000000
     39666      5117  TIP3      H1              7.2573359612       13.1021698173       39.1775145457  TIP3      4917            0.0000000000
     39667      5117  TIP3      H2              8.6682173440       13.1623027556       38.7039430569  TIP3      4917            0.0000000000
     39668      5118  TIP3      OH2            12.5079032565       13.5040169448       39.1363920655  TIP3      4918            0.0000000000
     39669      5118  TIP3      H1             12.8043247962       12.7289895122       39.6412729437  TIP3      4918            0.0000000000
     39670      5118  TIP3      H2             13.2715303041       13.7286850930       38.5848635831  TIP3      4918            0.0000000000
     39671      5119  TIP3      OH2             3.3715610577        9.4307244927       38.9212590615  TIP3      4919            0.0000000000
     39672      5119  TIP3      H1              3.5402871317        8.6969239009       39.5392726853  TIP3      4919            0.0000000000
     39673      5119  TIP3      H2              4.1600954488        9.3367704562       38.3505589618  TIP3      4919            0.0000000000
     39674      5120  TIP3      OH2             8.8253393254       10.5557119716       38.7332035097  TIP3      4920            0.0000000000
     39675      5120  TIP3      H1              8.5550291002       10.6356354431       39.6619037745  TIP3      4920            0.0000000000
     39676      5120  TIP3      H2              8.6366893418        9.5982707455       38.5880607315  TIP3      4920            0.0000000000
     39677      5121  TIP3      OH2             4.5937688161        7.4652180142       41.3768657752  TIP3      4921            0.0000000000
     39678      5121  TIP3      H1              4.0986128179        6.9259775771       42.0108148865  TIP3      4921            0.0000000000
     39679      5121  TIP3      H2              4.8966196786        6.7883791902       40.7293696499  TIP3      4921            0.0000000000
     39680      5122  TIP3      OH2             5.6805258978        5.6247730672       39.5911596100  TIP3      4922            0.0000000000
     39681      5122  TIP3      H1              5.5019618153        5.5909105393       38.6321877091  TIP3      4922            0.0000000000
     39682      5122  TIP3      H2              6.6494962907        5.7611691907       39.6397326207  TIP3      4922            0.0000000000
     39683      5123  TIP3      OH2            15.0016192794        8.0064631540       38.9931268532  TIP3      4923            0.0000000000
     39684      5123  TIP3      H1             14.8118578239        7.6261038327       38.1217210072  TIP3      4923            0.0000000000
     39685      5123  TIP3      H2             15.0913216964        8.9686069369       38.8078145262  TIP3      4923            0.0000000000
     39686      5124  TIP3      OH2             5.5042183012       16.3898818360       40.6628956699  TIP3      4924            0.0000000000
     39687      5124  TIP3      H1              6.4711885123       16.4724432218       40.7301583641  TIP3      4924            0.0000000000
     39688      5124  TIP3      H2              5.3576125780       16.9896650131       39.9217754682  TIP3      4924            0.0000000000
     39689      5125  TIP3      OH2            -0.9358677665       11.0027138039       40.0839789334  TIP3      4925            0.0000000000
     39690      5125  TIP3      H1              0.0219710743       11.0591914645       40.3338431464  TIP3      4925            0.0000000000
     39691      5125  TIP3      H2             -0.8957772567       10.2626741209       39.4473160671  TIP3      4925            0.0000000000
     39692      5126  TIP3      OH2            -2.1782668943       16.3483646136       45.0655892269  TIP3      4926            0.0000000000
     39693      5126  TIP3      H1             -2.8891228055       15.8326172811       44.6399661889  TIP3      4926            0.0000000000
     39694      5126  TIP3      H2             -1.8776026582       15.7088585261       45.7432264949  TIP3      4926            0.0000000000
     39695      5127  TIP3      OH2            -1.4003389274       14.4965695155       46.8917725174  TIP3      4927            0.0000000000
     39696      5127  TIP3      H1             -1.6650513621       13.5939254677       47.1294565887  TIP3      4927            0.0000000000
     39697      5127  TIP3      H2             -1.0612283417       14.8070600683       47.7715485723  TIP3      4927            0.0000000000
     39698      5128  TIP3      OH2            15.5388596006        8.9282735298       42.9470790156  TIP3      4928            0.0000000000
     39699      5128  TIP3      H1             16.4060492765        9.3245238477       43.1391550420  TIP3      4928            0.0000000000
     39700      5128  TIP3      H2             15.5219064143        8.2012068700       43.6054301924  TIP3      4928            0.0000000000
     39701      5129  TIP3      OH2            15.9150766595        6.9627763285       44.8138022806  TIP3      4929            0.0000000000
     39702      5129  TIP3      H1             15.1334413813        6.5297382599       45.2281877351  TIP3      4929            0.0000000000
     39703      5129  TIP3      H2             16.4923487137        7.1746715695       45.5791349534  TIP3      4929            0.0000000000
     39704      5130  TIP3      OH2            15.7551871352        9.9532383354       49.6923996067  TIP3      4930            0.0000000000
     39705      5130  TIP3      H1             16.5473153669        9.4360013647       49.4614117020  TIP3      4930            0.0000000000
     39706      5130  TIP3      H2             15.9463738695       10.8917278115       49.5576685128  TIP3      4930            0.0000000000
     39707      5131  TIP3      OH2            16.1951355824        6.8232271967       41.2286634112  TIP3      4931            0.0000000000
     39708      5131  TIP3      H1             15.6296392359        7.1659514906       40.5055812716  TIP3      4931            0.0000000000
     39709      5131  TIP3      H2             16.0964646939        7.5358721672       41.8878720696  TIP3      4931            0.0000000000
     39710      5132  TIP3      OH2            14.5723560254        4.0464347618       39.7357633754  TIP3      4932            0.0000000000
     39711      5132  TIP3      H1             14.6458985451        4.7157316319       39.0445364881  TIP3      4932            0.0000000000
     39712      5132  TIP3      H2             14.3828665929        3.2263831296       39.2409549560  TIP3      4932            0.0000000000
     39713      5133  TIP3      OH2            13.7460421444        5.4549668151       45.4437709093  TIP3      4933            0.0000000000
     39714      5133  TIP3      H1             13.5448069343        4.5117760463       45.3704302722  TIP3      4933            0.0000000000
     39715      5133  TIP3      H2             13.3521846881        5.6740642659       46.3057223810  TIP3      4933            0.0000000000
     39716      5134  TIP3      OH2            -1.2971073287        7.6340785836       49.3403998946  TIP3      4934            0.0000000000
     39717      5134  TIP3      H1             -1.0613126438        7.4670207796       48.4079606847  TIP3      4934            0.0000000000
     39718      5134  TIP3      H2             -0.4815964580        7.4024816241       49.8193009551  TIP3      4934            0.0000000000
     39719      5135  TIP3      OH2            13.8182410808        1.5279862167       38.8759777843  TIP3      4935            0.0000000000
     39720      5135  TIP3      H1             14.4051485158        1.0836581336       39.5156340058  TIP3      4935            0.0000000000
     39721      5135  TIP3      H2             12.9544725908        1.1105960515       39.0290515100  TIP3      4935            0.0000000000
     39722      5136  TIP3      OH2            13.3672768747        3.0633614226       43.8391436292  TIP3      4936            0.0000000000
     39723      5136  TIP3      H1             13.6644186032        2.1342877779       43.9681046939  TIP3      4936            0.0000000000
     39724      5136  TIP3      H2             14.1716120590        3.4673255871       43.4896815072  TIP3      4936            0.0000000000
     39725      5137  TIP3      OH2            14.0066088200        3.7213589159       48.8665137764  TIP3      4937            0.0000000000
     39726      5137  TIP3      H1             14.9545411572        3.7734493532       49.0981627441  TIP3      4937            0.0000000000
     39727      5137  TIP3      H2             13.6158680226        3.6503967932       49.7649873023  TIP3      4937            0.0000000000
     39728      5138  TIP3      OH2            14.0534765011        0.3504365054       43.9127308607  TIP3      4938            0.0000000000
     39729      5138  TIP3      H1             14.2505888862       -0.0976625032       44.7644497397  TIP3      4938            0.0000000000
     39730      5138  TIP3      H2             13.4590044017       -0.2849696085       43.4714823872  TIP3      4938            0.0000000000
     39731      5139  TIP3      OH2            -0.4866830543        1.1600658326       48.4652662903  TIP3      4939            0.0000000000
     39732      5139  TIP3      H1             -0.0357403737        0.3248819680       48.7131378526  TIP3      4939            0.0000000000
     39733      5139  TIP3      H2              0.0796627436        1.8263997324       48.8912397703  TIP3      4939            0.0000000000
     39734      5140  TIP3      OH2            -2.1876054485        4.1263620637       49.5180626858  TIP3      4940            0.0000000000
     39735      5140  TIP3      H1             -1.6523803268        3.8942486111       48.7273345284  TIP3      4940            0.0000000000
     39736      5140  TIP3      H2             -1.7441985158        4.9620940154       49.7454826357  TIP3      4940            0.0000000000
     39737      5141  TIP3      OH2            15.8721286400        0.3748567326       40.4706216365  TIP3      4941            0.0000000000
     39738      5141  TIP3      H1             16.2806821353       -0.3334300205       39.9257498209  TIP3      4941            0.0000000000
     39739      5141  TIP3      H2             16.5729001010        1.0406119134       40.5140503494  TIP3      4941            0.0000000000
     39740      5142  TIP3      OH2            -1.8663998350        0.3802235352       43.6329338389  TIP3      4942            0.0000000000
     39741      5142  TIP3      H1             -2.7878887340        0.5885309506       43.4340621524  TIP3      4942            0.0000000000
     39742      5142  TIP3      H2             -1.3875488932        0.8391968905       42.9111534209  TIP3      4942            0.0000000000
     39743      5143  TIP3      OH2            12.9300902548       15.3651999230       45.5200884912  TIP3      4943            0.0000000000
     39744      5143  TIP3      H1             13.6082195071       15.0642989834       44.8887703559  TIP3      4943            0.0000000000
     39745      5143  TIP3      H2             13.4397965240       15.8820301463       46.1628261765  TIP3      4943            0.0000000000
     39746      5144  TIP3      OH2            -0.0517268288       15.0032300331       48.9892233982  TIP3      4944            0.0000000000
     39747      5144  TIP3      H1              0.0420626094       14.8777937141       49.9422943763  TIP3      4944            0.0000000000
     39748      5144  TIP3      H2              0.8838906526       14.8380483295       48.7532678292  TIP3      4944            0.0000000000
     39749      5145  TIP3      OH2             2.2064062279       13.8783380373       47.9125499450  TIP3      4945            0.0000000000
     39750      5145  TIP3      H1              2.0781362158       12.9271840926       48.0873769070  TIP3      4945            0.0000000000
     39751      5145  TIP3      H2              3.0722296406       14.0081539821       48.3483583526  TIP3      4945            0.0000000000
     39752      5146  TIP3      OH2             4.7652223759       14.3566277094       48.7599477819  TIP3      4946            0.0000000000
     39753      5146  TIP3      H1              4.9917964583       13.4491774653       48.4944941343  TIP3      4946            0.0000000000
     39754      5146  TIP3      H2              4.8361686305       14.2815823313       49.7171279326  TIP3      4946            0.0000000000
     39755      5147  TIP3      OH2             8.2929739601        0.0586144451       47.9001801526  TIP3      4947            0.0000000000
     39756      5147  TIP3      H1              7.6375988548       -0.5906601434       48.2173256222  TIP3      4947            0.0000000000
     39757      5147  TIP3      H2              8.8646104233       -0.5259444764       47.3858675044  TIP3      4947            0.0000000000
     39758      5148  TIP3      OH2            13.4216416686       -1.9133919428       47.9966707505  TIP3      4948            0.0000000000
     39759      5148  TIP3      H1             14.0221424551       -1.3382490739       47.4725377640  TIP3      4948            0.0000000000
     39760      5148  TIP3      H2             12.5383467490       -1.5488620610       47.7915995460  TIP3      4948            0.0000000000
     39761      5149  TIP3      OH2            15.0675731159       -0.7803303116       46.2651978905  TIP3      4949            0.0000000000
     39762      5149  TIP3      H1             15.7573170245       -1.3300179751       45.8248545111  TIP3      4949            0.0000000000
     39763      5149  TIP3      H2             15.5385286333        0.0787307260       46.3537927126  TIP3      4949            0.0000000000
     39764      5150  TIP3      OH2             0.6684024541       -1.3563998399       45.6856364004  TIP3      4950            0.0000000000
     39765      5150  TIP3      H1             -0.1513942205       -1.5836532324       45.2158983172  TIP3      4950            0.0000000000
     39766      5150  TIP3      H2              1.1201965483       -2.2204143166       45.7088695262  TIP3      4950            0.0000000000
     39767      5151  TIP3      OH2            -0.5648284479       -1.6195725653       41.4833009167  TIP3      4951            0.0000000000
     39768      5151  TIP3      H1             -0.0722319875       -0.9637826312       40.9557103926  TIP3      4951            0.0000000000
     39769      5151  TIP3      H2             -1.1323246635       -1.0423600703       42.0256368087  TIP3      4951            0.0000000000
     39770      5152  TIP3      OH2             5.1467263841       -1.4813662750       45.5452353140  TIP3      4952            0.0000000000
     39771      5152  TIP3      H1              6.0258796496       -1.0792451512       45.4918403699  TIP3      4952            0.0000000000
     39772      5152  TIP3      H2              5.0905287798       -1.6782443656       46.4832580026  TIP3      4952            0.0000000000
     39773      5153  TIP3      OH2            10.8394463693       -1.4034957360       47.1460235926  TIP3      4953            0.0000000000
     39774      5153  TIP3      H1             10.8036442902       -1.3109364876       46.1938894402  TIP3      4953            0.0000000000
     39775      5153  TIP3      H2             10.4573534563       -2.2989236590       47.3141911489  TIP3      4953            0.0000000000
     39776      5154  TIP3      OH2            12.1277055770       -1.4060447423       42.8688844068  TIP3      4954            0.0000000000
     39777      5154  TIP3      H1             11.3875509585       -0.8046790463       42.7143986147  TIP3      4954            0.0000000000
     39778      5154  TIP3      H2             11.6784339175       -2.2539462542       43.1015155242  TIP3      4954            0.0000000000
     39779      5155  TIP3      OH2            -0.6778381085       14.3295070850       42.5314734531  TIP3      4955            0.0000000000
     39780      5155  TIP3      H1             -1.3016571652       14.3115435335       41.7892709794  TIP3      4955            0.0000000000
     39781      5155  TIP3      H2             -0.6429212238       15.2852949094       42.6925827820  TIP3      4955            0.0000000000
     39782      5156  TIP3      OH2             1.2611301933        0.3297743705       39.9800178008  TIP3      4956            0.0000000000
     39783      5156  TIP3      H1              1.7872362847       -0.2946247661       39.4654730287  TIP3      4956            0.0000000000
     39784      5156  TIP3      H2              1.9003411736        0.6547959540       40.6354186418  TIP3      4956            0.0000000000
     39785      5157  TIP3      OH2             6.0426178515        0.6050712867       42.8564067767  TIP3      4957            0.0000000000
     39786      5157  TIP3      H1              6.6218774671        0.0615046753       43.4278309905  TIP3      4957            0.0000000000
     39787      5157  TIP3      H2              6.3832185113        1.5043258107       43.1151818783  TIP3      4957            0.0000000000
     39788      5158  TIP3      OH2             8.2196767434       15.6419397530       40.8528039948  TIP3      4958            0.0000000000
     39789      5158  TIP3      H1              9.1375948152       15.8657275754       40.6306839244  TIP3      4958            0.0000000000
     39790      5158  TIP3      H2              7.9983111594       15.1203269609       40.0528154906  TIP3      4958            0.0000000000
     39791      5159  TIP3      OH2            14.9237417138       15.1369061083       43.5682005383  TIP3      4959            0.0000000000
     39792      5159  TIP3      H1             14.7196306550       14.3550771075       43.0031132466  TIP3      4959            0.0000000000
     39793      5159  TIP3      H2             14.8443094463       15.8738901617       42.9283003752  TIP3      4959            0.0000000000
     39794      5160  TIP3      OH2             1.1400019097       15.3169375354       39.4540182295  TIP3      4960            0.0000000000
     39795      5160  TIP3      H1              0.8735956545       15.5728973576       40.3483987857  TIP3      4960            0.0000000000
     39796      5160  TIP3      H2              1.9338125102       14.7701831892       39.6236330200  TIP3      4960            0.0000000000
     39797      5161  TIP3      OH2            28.6011559129        7.7650695250       45.6299110985  TIP3      4961            0.0000000000
     39798      5161  TIP3      H1             28.6002317715        8.7465388283       45.5998608525  TIP3      4961            0.0000000000
     39799      5161  TIP3      H2             27.8744312244        7.5367943064       45.0265104512  TIP3      4961            0.0000000000
     39800      5162  TIP3      OH2            27.4786394616        7.0217449147       49.1340586790  TIP3      4962            0.0000000000
     39801      5162  TIP3      H1             27.4084881715        6.3762423709       49.8640361949  TIP3      4962            0.0000000000
     39802      5162  TIP3      H2             27.1698453088        6.5439212430       48.3547737477  TIP3      4962            0.0000000000
     39803      5163  TIP3      OH2            31.0548334957        9.9303863315       47.3517634061  TIP3      4963            0.0000000000
     39804      5163  TIP3      H1             30.7149592141        9.2119297651       47.9123153117  TIP3      4963            0.0000000000
     39805      5163  TIP3      H2             31.1949859060       10.6188536178       48.0593585687  TIP3      4963            0.0000000000
     39806      5164  TIP3      OH2            20.7317917546       11.2160673583       49.0687559247  TIP3      4964            0.0000000000
     39807      5164  TIP3      H1             20.4300880763       10.3113364888       48.8514267551  TIP3      4964            0.0000000000
     39808      5164  TIP3      H2             21.6765423019       10.9835562370       49.2168339755  TIP3      4964            0.0000000000
     39809      5165  TIP3      OH2            17.3386781586        4.6193289090       44.7353577628  TIP3      4965            0.0000000000
     39810      5165  TIP3      H1             17.0034260295        5.5452260902       44.6264370138  TIP3      4965            0.0000000000
     39811      5165  TIP3      H2             16.8064319424        4.2010044553       44.0381700127  TIP3      4965            0.0000000000
     39812      5166  TIP3      OH2            18.0586928233        6.8994136168       46.7416243777  TIP3      4966            0.0000000000
     39813      5166  TIP3      H1             18.3648343232        6.1669694027       47.2918197987  TIP3      4966            0.0000000000
     39814      5166  TIP3      H2             18.8188556346        7.0824742880       46.1693591471  TIP3      4966            0.0000000000
     39815      5167  TIP3      OH2            28.2729601865       15.1361629421       47.6956944978  TIP3      4967            0.0000000000
     39816      5167  TIP3      H1             28.9215488311       14.4601408586       47.3702292712  TIP3      4967            0.0000000000
     39817      5167  TIP3      H2             28.0758764199       14.7931756117       48.5657014270  TIP3      4967            0.0000000000
     39818      5168  TIP3      OH2            25.8911177312        9.4797362005       49.5660045342  TIP3      4968            0.0000000000
     39819      5168  TIP3      H1             26.2287291597        8.7898885791       48.9722350884  TIP3      4968            0.0000000000
     39820      5168  TIP3      H2             26.6454594427        9.5484245190       50.1562459696  TIP3      4968            0.0000000000
     39821      5169  TIP3      OH2            29.0452218075        3.8869021109       49.8906571857  TIP3      4969            0.0000000000
     39822      5169  TIP3      H1             29.1616558253        2.9227368694       49.9027069728  TIP3      4969            0.0000000000
     39823      5169  TIP3      H2             28.9251788651        4.0345832893       48.9278996499  TIP3      4969            0.0000000000
     39824      5170  TIP3      OH2            22.1230827395        1.9583662696       47.1214093421  TIP3      4970            0.0000000000
     39825      5170  TIP3      H1             22.2612639786        2.7986758363       46.6429014723  TIP3      4970            0.0000000000
     39826      5170  TIP3      H2             21.7446537240        1.3781698925       46.4304302030  TIP3      4970            0.0000000000
     39827      5171  TIP3      OH2            29.8375463486        2.0687249339       45.4783712873  TIP3      4971            0.0000000000
     39828      5171  TIP3      H1             30.4769723672        1.7414416611       46.1572111830  TIP3      4971            0.0000000000
     39829      5171  TIP3      H2             30.4250718885        2.6403813163       44.9665643278  TIP3      4971            0.0000000000
     39830      5172  TIP3      OH2            18.6907266567        4.2746840220       47.8426705858  TIP3      4972            0.0000000000
     39831      5172  TIP3      H1             19.4249678402        3.8759329468       48.3770539144  TIP3      4972            0.0000000000
     39832      5172  TIP3      H2             19.0631153306        4.2096455720       46.9478612654  TIP3      4972            0.0000000000
     39833      5173  TIP3      OH2            23.9059647400        5.9236454101       47.1600518004  TIP3      4973            0.0000000000
     39834      5173  TIP3      H1             24.5764617376        5.3432139903       47.5627351480  TIP3      4973            0.0000000000
     39835      5173  TIP3      H2             23.3842883086        5.2803845386       46.6371651490  TIP3      4973            0.0000000000
     39836      5174  TIP3      OH2            28.3011616207       10.3664518627       44.7353500027  TIP3      4974            0.0000000000
     39837      5174  TIP3      H1             28.0440257254       10.0704604910       43.8553227811  TIP3      4974            0.0000000000
     39838      5174  TIP3      H2             28.0282633531       11.3091059642       44.7670989746  TIP3      4974            0.0000000000
     39839      5175  TIP3      OH2            31.6053675818        1.4011567455       47.4664192290  TIP3      4975            0.0000000000
     39840      5175  TIP3      H1             31.4344592074        0.6522212915       48.0524132034  TIP3      4975            0.0000000000
     39841      5175  TIP3      H2             32.2945719680        1.8383656620       48.0027225097  TIP3      4975            0.0000000000
     39842      5176  TIP3      OH2            20.5782937784        2.7866075984       49.0780932624  TIP3      4976            0.0000000000
     39843      5176  TIP3      H1             21.1760132816        3.4123658907       49.4974909733  TIP3      4976            0.0000000000
     39844      5176  TIP3      H2             21.1487734738        2.2981791187       48.4481500374  TIP3      4976            0.0000000000
     39845      5177  TIP3      OH2            18.0678100368       10.1345252264       43.0305512591  TIP3      4977            0.0000000000
     39846      5177  TIP3      H1             17.8370152677       10.5014432090       42.1582262082  TIP3      4977            0.0000000000
     39847      5177  TIP3      H2             18.1651166204       10.9717776136       43.5504810566  TIP3      4977            0.0000000000
     39848      5178  TIP3      OH2            31.7272091032       11.5233543059       49.2775091233  TIP3      4978            0.0000000000
     39849      5178  TIP3      H1             30.9397965872       11.6355085414       49.8527834608  TIP3      4978            0.0000000000
     39850      5178  TIP3      H2             32.0861615646       12.3976461731       49.4593772026  TIP3      4978            0.0000000000
     39851      5179  TIP3      OH2            24.9887379815       -1.7529753920       48.5777835647  TIP3      4979            0.0000000000
     39852      5179  TIP3      H1             24.9148248566       -2.7179906973       48.5886659212  TIP3      4979            0.0000000000
     39853      5179  TIP3      H2             24.1105363373       -1.4559065958       48.8975885590  TIP3      4979            0.0000000000
     39854      5180  TIP3      OH2            29.9006435616       13.5971012122       46.3495108423  TIP3      4980            0.0000000000
     39855      5180  TIP3      H1             30.3526344824       12.8769038154       45.8569292315  TIP3      4980            0.0000000000
     39856      5180  TIP3      H2             30.3600807446       14.3886147021       45.9991962803  TIP3      4980            0.0000000000
     39857      5181  TIP3      OH2            31.1438497754       11.5461930674       44.9130679192  TIP3      4981            0.0000000000
     39858      5181  TIP3      H1             30.8501176468       10.8363060707       44.3162343234  TIP3      4981            0.0000000000
     39859      5181  TIP3      H2             31.1871017483       11.0459201839       45.7504343084  TIP3      4981            0.0000000000
     39860      5182  TIP3      OH2            27.2533030484        6.9981962564       43.1429576364  TIP3      4982            0.0000000000
     39861      5182  TIP3      H1             26.5625795227        7.5828653974       42.7768419076  TIP3      4982            0.0000000000
     39862      5182  TIP3      H2             27.9673588913        7.0965059852       42.4805742431  TIP3      4982            0.0000000000
     39863      5183  TIP3      OH2            27.3440397984        5.5742133674       40.1493309695  TIP3      4983            0.0000000000
     39864      5183  TIP3      H1             28.0474970736        5.5542672114       40.8154451625  TIP3      4983            0.0000000000
     39865      5183  TIP3      H2             27.6485601235        4.8543284408       39.5821355177  TIP3      4983            0.0000000000
     39866      5184  TIP3      OH2            30.7129904551        7.2214060314       44.0566578234  TIP3      4984            0.0000000000
     39867      5184  TIP3      H1             29.9592791658        7.4564774746       44.6510280122  TIP3      4984            0.0000000000
     39868      5184  TIP3      H2             31.1768539005        6.5359021939       44.5669667740  TIP3      4984            0.0000000000
     39869      5185  TIP3      OH2            22.2922313221        7.8483400551       45.9979350675  TIP3      4985            0.0000000000
     39870      5185  TIP3      H1             21.9824112195        7.4975691318       45.1310917909  TIP3      4985            0.0000000000
     39871      5185  TIP3      H2             22.9518130383        7.1754391279       46.2708560188  TIP3      4985            0.0000000000
     39872      5186  TIP3      OH2            23.7194881371       11.3132820614       48.6545264792  TIP3      4986            0.0000000000
     39873      5186  TIP3      H1             23.6398261193       10.7739382726       47.8468608489  TIP3      4986            0.0000000000
     39874      5186  TIP3      H2             24.4395551306       10.8768421534       49.1376676560  TIP3      4986            0.0000000000
     39875      5187  TIP3      OH2            22.5453834304        6.7024418957       49.4860455566  TIP3      4987            0.0000000000
     39876      5187  TIP3      H1             23.1793824301        6.7905524895       48.7563835964  TIP3      4987            0.0000000000
     39877      5187  TIP3      H2             22.9988805476        7.1631813732       50.2089607894  TIP3      4987            0.0000000000
     39878      5188  TIP3      OH2            29.5892102710        6.4221504554       41.7275957298  TIP3      4988            0.0000000000
     39879      5188  TIP3      H1             30.1405480983        6.6085878015       42.5282684686  TIP3      4988            0.0000000000
     39880      5188  TIP3      H2             30.0403209357        6.9129812930       41.0041907255  TIP3      4988            0.0000000000
     39881      5189  TIP3      OH2            27.2949129021       13.1217971688       45.1861842868  TIP3      4989            0.0000000000
     39882      5189  TIP3      H1             27.7333365966       13.4305262611       45.9894085897  TIP3      4989            0.0000000000
     39883      5189  TIP3      H2             26.7289880438       13.8717375694       44.9675083056  TIP3      4989            0.0000000000
     39884      5190  TIP3      OH2            33.3173601587       -1.8589733561       41.6325537491  TIP3      4990            0.0000000000
     39885      5190  TIP3      H1             32.3680903478       -1.7412022952       41.8719751918  TIP3      4990            0.0000000000
     39886      5190  TIP3      H2             33.5159649878       -1.0157541955       41.1909791015  TIP3      4990            0.0000000000
     39887      5191  TIP3      OH2            21.2650537154        6.8775296865       43.6295348008  TIP3      4991            0.0000000000
     39888      5191  TIP3      H1             21.0109003054        7.6791341767       43.1174263353  TIP3      4991            0.0000000000
     39889      5191  TIP3      H2             20.6374685505        6.2273673181       43.3279881946  TIP3      4991            0.0000000000
     39890      5192  TIP3      OH2            34.4305559915       12.4930329403       39.9828206189  TIP3      4992            0.0000000000
     39891      5192  TIP3      H1             34.5869005423       13.4382997657       40.1529963700  TIP3      4992            0.0000000000
     39892      5192  TIP3      H2             35.3599392135       12.1900319168       39.9710318032  TIP3      4992            0.0000000000
     39893      5193  TIP3      OH2            17.2141782635       12.2349517034       49.0698526708  TIP3      4993            0.0000000000
     39894      5193  TIP3      H1             18.1182911058       11.9550749634       49.2535065351  TIP3      4993            0.0000000000
     39895      5193  TIP3      H2             17.0328179721       12.8999847072       49.7407258753  TIP3      4993            0.0000000000
     39896      5194  TIP3      OH2            26.7140817361       16.0539507289       43.6430755616  TIP3      4994            0.0000000000
     39897      5194  TIP3      H1             26.7449075575       16.0078472390       42.6752443862  TIP3      4994            0.0000000000
     39898      5194  TIP3      H2             26.8136203976       17.0126268547       43.8270592328  TIP3      4994            0.0000000000
     39899      5195  TIP3      OH2            20.2974924349       15.1557158376       45.5853553085  TIP3      4995            0.0000000000
     39900      5195  TIP3      H1             20.5843285929       14.5485988255       46.2989474395  TIP3      4995            0.0000000000
     39901      5195  TIP3      H2             19.6514857617       14.5656159655       45.1581031166  TIP3      4995            0.0000000000
     39902      5196  TIP3      OH2            29.7514510150       15.2183380067       40.5846762104  TIP3      4996            0.0000000000
     39903      5196  TIP3      H1             30.3186946405       14.5176664299       40.1702809484  TIP3      4996            0.0000000000
     39904      5196  TIP3      H2             29.8986873036       15.0165901010       41.5386657209  TIP3      4996            0.0000000000
     39905      5197  TIP3      OH2            29.5214502296       15.1797294058       43.3391804618  TIP3      4997            0.0000000000
     39906      5197  TIP3      H1             28.5800336308       15.2826200212       43.5650392112  TIP3      4997            0.0000000000
     39907      5197  TIP3      H2             29.7800652011       14.4735184790       43.9578957170  TIP3      4997            0.0000000000
     39908      5198  TIP3      OH2            22.3480613068       -0.9389118080       49.4261842714  TIP3      4998            0.0000000000
     39909      5198  TIP3      H1             21.4721511216       -1.0385950507       48.9936517351  TIP3      4998            0.0000000000
     39910      5198  TIP3      H2             22.2674719602       -0.0634245229       49.8227643437  TIP3      4998            0.0000000000
     39911      5199  TIP3      OH2            31.0298924763        7.4542001026       39.5446971424  TIP3      4999            0.0000000000
     39912      5199  TIP3      H1             31.0120806448        7.2566366788       38.5788609651  TIP3      4999            0.0000000000
     39913      5199  TIP3      H2             31.8928949263        7.8903479641       39.5939250371  TIP3      4999            0.0000000000
     39914      5200  TIP3      OH2            26.6307733956        1.3705926701       40.0539134778  TIP3      5000            0.0000000000
     39915      5200  TIP3      H1             26.3162623649        1.3074239456       40.9735538696  TIP3      5000            0.0000000000
     39916      5200  TIP3      H2             26.3228441287        0.4935068817       39.7469574056  TIP3      5000            0.0000000000
     39917      5201  TIP3      OH2            22.4029598816        4.2150254986       45.4731941229  TIP3      5001            0.0000000000
     39918      5201  TIP3      H1             21.4762359800        3.9556105424       45.3447555218  TIP3      5001            0.0000000000
     39919      5201  TIP3      H2             22.7956480623        3.9322640567       44.6201428279  TIP3      5001            0.0000000000
     39920      5202  TIP3      OH2            27.9263557456        4.7092524361       44.2624019248  TIP3      5002            0.0000000000
     39921      5202  TIP3      H1             27.5382410944        5.5425119521       43.9127016738  TIP3      5002            0.0000000000
     39922      5202  TIP3      H2             28.6213375459        4.5372537796       43.6050892897  TIP3      5002            0.0000000000
     39923      5203  TIP3      OH2            28.9428589937        4.1828505913       47.1228881285  TIP3      5003            0.0000000000
     39924      5203  TIP3      H1             28.7051842116        4.7639852809       46.3745636907  TIP3      5003            0.0000000000
     39925      5203  TIP3      H2             29.0750656864        3.3497305769       46.6211884567  TIP3      5003            0.0000000000
     39926      5204  TIP3      OH2            23.4413678955        1.7354752719       39.1718793826  TIP3      5004            0.0000000000
     39927      5204  TIP3      H1             22.9864098136        1.3147565200       39.9294563790  TIP3      5004            0.0000000000
     39928      5204  TIP3      H2             22.7324203011        2.1675888330       38.6798802220  TIP3      5004            0.0000000000
     39929      5205  TIP3      OH2            16.5698865297        1.2845910996       46.2802659553  TIP3      5005            0.0000000000
     39930      5205  TIP3      H1             17.1871459499        1.1745322334       47.0383394984  TIP3      5005            0.0000000000
     39931      5205  TIP3      H2             17.0390046326        0.8946878873       45.4984379661  TIP3      5005            0.0000000000
     39932      5206  TIP3      OH2            18.0262968778        2.1999584171       41.7100303074  TIP3      5006            0.0000000000
     39933      5206  TIP3      H1             18.5094415536        2.7642530612       41.0759210109  TIP3      5006            0.0000000000
     39934      5206  TIP3      H2             17.2955368785        2.8114254991       41.9331693470  TIP3      5006            0.0000000000
     39935      5207  TIP3      OH2            24.9630619117        1.8084593187       46.5171617263  TIP3      5007            0.0000000000
     39936      5207  TIP3      H1             24.0323249878        1.7560629062       46.8108364047  TIP3      5007            0.0000000000
     39937      5207  TIP3      H2             25.4634455313        1.5919327399       47.3173723010  TIP3      5007            0.0000000000
     39938      5208  TIP3      OH2            19.7885428370        3.2866087736       45.3446989137  TIP3      5008            0.0000000000
     39939      5208  TIP3      H1             19.0534030291        3.5583666694       44.7571041935  TIP3      5008            0.0000000000
     39940      5208  TIP3      H2             20.1565534295        2.4852676995       44.9101051069  TIP3      5008            0.0000000000
     39941      5209  TIP3      OH2            23.4125428074        3.3611755296       43.0062741380  TIP3      5009            0.0000000000
     39942      5209  TIP3      H1             24.3707427550        3.4683406531       43.1612592027  TIP3      5009            0.0000000000
     39943      5209  TIP3      H2             23.1784149926        4.0401122317       42.3463034233  TIP3      5009            0.0000000000
     39944      5210  TIP3      OH2            29.3749474859        0.9451031822       49.5964157397  TIP3      5010            0.0000000000
     39945      5210  TIP3      H1             28.7751110162        1.0412007201       50.3543285704  TIP3      5010            0.0000000000
     39946      5210  TIP3      H2             28.7597565454        0.7220785450       48.9004118270  TIP3      5010            0.0000000000
     39947      5211  TIP3      OH2            22.1236678433        4.5345605082       40.5909876903  TIP3      5011            0.0000000000
     39948      5211  TIP3      H1             21.5909793810        4.1486889782       39.8743860249  TIP3      5011            0.0000000000
     39949      5211  TIP3      H2             22.9427807837        4.7443207038       40.1140052287  TIP3      5011            0.0000000000
     39950      5212  TIP3      OH2            26.2061257607        4.4732990300       48.3961415485  TIP3      5012            0.0000000000
     39951      5212  TIP3      H1             26.8419272628        3.9895000342       47.8423461746  TIP3      5012            0.0000000000
     39952      5212  TIP3      H2             26.1467816934        3.9245732839       49.1856089850  TIP3      5012            0.0000000000
     39953      5213  TIP3      OH2            21.2448779841        0.6679259775       44.8407381674  TIP3      5013            0.0000000000
     39954      5213  TIP3      H1             20.9530664421       -0.2659626814       44.8188653862  TIP3      5013            0.0000000000
     39955      5213  TIP3      H2             22.0366780391        0.5964907716       44.2841937877  TIP3      5013            0.0000000000
     39956      5214  TIP3      OH2            25.4829099305        9.0250039215       42.5295501094  TIP3      5014            0.0000000000
     39957      5214  TIP3      H1             24.6627981542        8.6025935250       42.1840661091  TIP3      5014            0.0000000000
     39958      5214  TIP3      H2             25.2312119540        9.1954724573       43.4618919142  TIP3      5014            0.0000000000
     39959      5215  TIP3      OH2            29.2969556753        1.8788232208       40.6918840798  TIP3      5015            0.0000000000
     39960      5215  TIP3      H1             28.3488181268        2.0377841849       40.5502524303  TIP3      5015            0.0000000000
     39961      5215  TIP3      H2             29.6407646846        2.7314402147       41.0377107995  TIP3      5015            0.0000000000
     39962      5216  TIP3      OH2            30.0335973383        3.8060757985       42.3068115735  TIP3      5016            0.0000000000
     39963      5216  TIP3      H1             30.9143509970        3.6741672343       42.7168803460  TIP3      5016            0.0000000000
     39964      5216  TIP3      H2             30.1375320067        4.6257073648       41.7954515779  TIP3      5016            0.0000000000
     39965      5217  TIP3      OH2            20.4807230566        8.4105256330       48.2537413582  TIP3      5017            0.0000000000
     39966      5217  TIP3      H1             21.2369106648        8.4079484869       47.6392184155  TIP3      5017            0.0000000000
     39967      5217  TIP3      H2             20.6777850997        7.6121600811       48.7632199789  TIP3      5017            0.0000000000
     39968      5218  TIP3      OH2            27.5456982769       10.5533357559       41.5190503086  TIP3      5018            0.0000000000
     39969      5218  TIP3      H1             27.2108426842       11.3695504072       41.9352988479  TIP3      5018            0.0000000000
     39970      5218  TIP3      H2             26.8505171168        9.9050592302       41.7652485807  TIP3      5018            0.0000000000
     39971      5219  TIP3      OH2            34.9424387277        3.9339483529       42.0914727388  TIP3      5019            0.0000000000
     39972      5219  TIP3      H1             34.3740177762        3.6457152338       41.3545113609  TIP3      5019            0.0000000000
     39973      5219  TIP3      H2             35.0059182007        4.8833618130       41.8305930220  TIP3      5019            0.0000000000
     39974      5220  TIP3      OH2            33.2241344157       12.7717781229       42.4843466866  TIP3      5020            0.0000000000
     39975      5220  TIP3      H1             32.8671871237       11.9418903863       42.8309425798  TIP3      5020            0.0000000000
     39976      5220  TIP3      H2             33.5537798463       12.5480918637       41.5971230812  TIP3      5020            0.0000000000
     39977      5221  TIP3      OH2            30.1189059401        7.6533392902       48.8818506526  TIP3      5021            0.0000000000
     39978      5221  TIP3      H1             29.3503709077        7.4412871580       49.4506681932  TIP3      5021            0.0000000000
     39979      5221  TIP3      H2             30.6371413819        6.8232821487       48.8666262157  TIP3      5021            0.0000000000
     39980      5222  TIP3      OH2            23.0868760332       11.8522824538       45.8785210584  TIP3      5022            0.0000000000
     39981      5222  TIP3      H1             23.4882259411       12.6563701147       45.5300794645  TIP3      5022            0.0000000000
     39982      5222  TIP3      H2             22.2061385919       11.9740401120       45.4399044823  TIP3      5022            0.0000000000
     39983      5223  TIP3      OH2            18.7226335137        6.7522867593       40.2682053877  TIP3      5023            0.0000000000
     39984      5223  TIP3      H1             19.3010212010        7.4208447750       40.6758706442  TIP3      5023            0.0000000000
     39985      5223  TIP3      H2             17.8309999273        7.0655685553       40.5139014076  TIP3      5023            0.0000000000
     39986      5224  TIP3      OH2            24.3910019289        9.5583322598       45.2112513107  TIP3      5024            0.0000000000
     39987      5224  TIP3      H1             24.0860561828       10.4841923397       45.3140429423  TIP3      5024            0.0000000000
     39988      5224  TIP3      H2             23.6403458288        9.1021473284       45.6327128776  TIP3      5024            0.0000000000
     39989      5225  TIP3      OH2            23.1179694262       14.8474228669       44.5985521998  TIP3      5025            0.0000000000
     39990      5225  TIP3      H1             22.2033260806       14.5756754139       44.8976838885  TIP3      5025            0.0000000000
     39991      5225  TIP3      H2             23.4043806067       15.4982380483       45.2574477872  TIP3      5025            0.0000000000
     39992      5226  TIP3      OH2            30.6888117452       10.8488445780       40.3394359132  TIP3      5026            0.0000000000
     39993      5226  TIP3      H1             30.9844458813       10.3659957446       41.1365964043  TIP3      5026            0.0000000000
     39994      5226  TIP3      H2             29.7400349311       10.6348132723       40.4085237619  TIP3      5026            0.0000000000
     39995      5227  TIP3      OH2            35.1460981290       15.1908268618       40.6063609501  TIP3      5027            0.0000000000
     39996      5227  TIP3      H1             35.8196085585       15.8532675244       40.3641055300  TIP3      5027            0.0000000000
     39997      5227  TIP3      H2             34.4254511311       15.8031720856       40.8701004909  TIP3      5027            0.0000000000
     39998      5228  TIP3      OH2            31.4577998381        9.4702809844       42.5764080614  TIP3      5028            0.0000000000
     39999      5228  TIP3      H1             31.2177830795        8.6892608492       43.1252006121  TIP3      5028            0.0000000000
     40000      5228  TIP3      H2             32.4121256267        9.5140895562       42.7522188945  TIP3      5028            0.0000000000
     40001      5229  TIP3      OH2            24.6758391536       11.9304189112       38.8457517566  TIP3      5029            0.0000000000
     40002      5229  TIP3      H1             24.8846004588       11.1804213248       38.2543886768  TIP3      5029            0.0000000000
     40003      5229  TIP3      H2             24.3272768302       11.4266730108       39.6202878569  TIP3      5029            0.0000000000
     40004      5230  TIP3      OH2            23.6368747224       11.4384116243       41.2674913587  TIP3      5030            0.0000000000
     40005      5230  TIP3      H1             23.8213268573       10.8944893164       42.0456015105  TIP3      5030            0.0000000000
     40006      5230  TIP3      H2             23.6561187913       12.3421247354       41.6422291893  TIP3      5030            0.0000000000
     40007      5231  TIP3      OH2            20.1147242202        8.6815950903       41.7422532977  TIP3      5031            0.0000000000
     40008      5231  TIP3      H1             19.4263844212        9.0898268560       42.3100593056  TIP3      5031            0.0000000000
     40009      5231  TIP3      H2             20.6332899106        9.4702747026       41.4905429304  TIP3      5031            0.0000000000
     40010      5232  TIP3      OH2            28.6966192080        0.9369012018       43.1700857831  TIP3      5032            0.0000000000
     40011      5232  TIP3      H1             28.9284106503        1.4013972212       42.3431384073  TIP3      5032            0.0000000000
     40012      5232  TIP3      H2             29.2734762195        1.3827602791       43.8044630206  TIP3      5032            0.0000000000
     40013      5233  TIP3      OH2            26.3770771384       13.0839102480       41.8918431127  TIP3      5033            0.0000000000
     40014      5233  TIP3      H1             25.5727784635       13.6084203052       42.0895345420  TIP3      5033            0.0000000000
     40015      5233  TIP3      H2             27.0048077310       13.6604450927       41.4558106064  TIP3      5033            0.0000000000
     40016      5234  TIP3      OH2            25.9321442997        2.6901753736       43.9808101605  TIP3      5034            0.0000000000
     40017      5234  TIP3      H1             26.7105071684        3.2783382696       44.0375285209  TIP3      5034            0.0000000000
     40018      5234  TIP3      H2             25.6616865672        2.5561056992       44.9076887506  TIP3      5034            0.0000000000
     40019      5235  TIP3      OH2            26.7820574753       -0.2447407062       44.8670187619  TIP3      5035            0.0000000000
     40020      5235  TIP3      H1             26.4626525443        0.3965002026       45.5282374341  TIP3      5035            0.0000000000
     40021      5235  TIP3      H2             27.4778317730        0.3015046045       44.4290628182  TIP3      5035            0.0000000000
     40022      5236  TIP3      OH2            23.8604853063       14.0779221280       41.9637194790  TIP3      5036            0.0000000000
     40023      5236  TIP3      H1             23.9680536795       14.8911428582       41.4309463350  TIP3      5036            0.0000000000
     40024      5236  TIP3      H2             23.6151104435       14.3007254016       42.8957146314  TIP3      5036            0.0000000000
     40025      5237  TIP3      OH2            22.4346326599        0.8547056531       41.5851803986  TIP3      5037            0.0000000000
     40026      5237  TIP3      H1             22.3851507955        1.7538960068       41.9675767508  TIP3      5037            0.0000000000
     40027      5237  TIP3      H2             23.3459592095        0.6115057269       41.8448835149  TIP3      5037            0.0000000000
     40028      5238  TIP3      OH2            31.2499591866        5.4277644378       47.9527356192  TIP3      5038            0.0000000000
     40029      5238  TIP3      H1             30.4273068491        4.9438047990       47.7570245505  TIP3      5038            0.0000000000
     40030      5238  TIP3      H2             31.7346044492        4.7392493312       48.4675854289  TIP3      5038            0.0000000000
     40031      5239  TIP3      OH2            20.6668874052       11.3064467520       40.5940661679  TIP3      5039            0.0000000000
     40032      5239  TIP3      H1             21.3247420662       11.9022371923       40.9887236287  TIP3      5039            0.0000000000
     40033      5239  TIP3      H2             21.2137329983       10.8261676078       39.9478373271  TIP3      5039            0.0000000000
     40034      5240  TIP3      OH2            19.0098985105        3.9698225265       39.7725580278  TIP3      5040            0.0000000000
     40035      5240  TIP3      H1             19.0314399328        4.9291696321       39.9729408473  TIP3      5040            0.0000000000
     40036      5240  TIP3      H2             18.1203244633        3.7994293359       39.4556262243  TIP3      5040            0.0000000000
     40037      5241  TIP3      OH2            32.6161368154       14.8809964421       49.5921848739  TIP3      5041            0.0000000000
     40038      5241  TIP3      H1             32.4471374139       15.5295872544       48.8718869292  TIP3      5041            0.0000000000
     40039      5241  TIP3      H2             33.5602822998       14.8725156337       49.7522685941  TIP3      5041            0.0000000000
     40040      5242  TIP3      OH2            19.8296613607       -1.2678174598       48.4454518526  TIP3      5042            0.0000000000
     40041      5242  TIP3      H1             19.6063991878       -1.2451136948       47.4954859875  TIP3      5042            0.0000000000
     40042      5242  TIP3      H2             19.4399992978       -2.0969220551       48.7510159210  TIP3      5042            0.0000000000
     40043      5243  TIP3      OH2            18.2812406685       12.5239745878       44.5209023737  TIP3      5043            0.0000000000
     40044      5243  TIP3      H1             17.7500840986       13.3123184007       44.5909724468  TIP3      5043            0.0000000000
     40045      5243  TIP3      H2             19.1204689880       12.8954052469       44.1373555741  TIP3      5043            0.0000000000
     40046      5244  TIP3      OH2            26.8556350742       13.2628903894       38.4776556349  TIP3      5044            0.0000000000
     40047      5244  TIP3      H1             26.2405052605       12.7732719181       39.0709151404  TIP3      5044            0.0000000000
     40048      5244  TIP3      H2             27.7378969363       12.9506840278       38.7371461648  TIP3      5044            0.0000000000
     40049      5245  TIP3      OH2            31.3548861283       13.5105099483       39.1415825313  TIP3      5045            0.0000000000
     40050      5245  TIP3      H1             31.6565932745       12.7315212458       39.6374415805  TIP3      5045            0.0000000000
     40051      5245  TIP3      H2             32.1162220446       13.7327453219       38.5852493926  TIP3      5045            0.0000000000
     40052      5246  TIP3      OH2            22.2334927338        9.4252634139       38.9507860377  TIP3      5046            0.0000000000
     40053      5246  TIP3      H1             22.3924039533        8.6738983220       39.5449570980  TIP3      5046            0.0000000000
     40054      5246  TIP3      H2             22.9956368492        9.3349410884       38.3454052194  TIP3      5046            0.0000000000
     40055      5247  TIP3      OH2            27.7040751152       10.5335587793       38.7527310872  TIP3      5047            0.0000000000
     40056      5247  TIP3      H1             27.4134649294       10.5993508598       39.6748925120  TIP3      5047            0.0000000000
     40057      5247  TIP3      H2             27.4974417336        9.5815641413       38.5842722063  TIP3      5047            0.0000000000
     40058      5248  TIP3      OH2            23.4473838781        7.4704144757       41.3746823402  TIP3      5048            0.0000000000
     40059      5248  TIP3      H1             22.9535048249        6.9272517473       42.0079042316  TIP3      5048            0.0000000000
     40060      5248  TIP3      H2             23.7533462825        6.7931059520       40.7292811903  TIP3      5048            0.0000000000
     40061      5249  TIP3      OH2            24.5297489715        5.6865019736       39.5816767255  TIP3      5049            0.0000000000
     40062      5249  TIP3      H1             24.3812788722        5.5950414673       38.6179402500  TIP3      5049            0.0000000000
     40063      5249  TIP3      H2             25.5058419814        5.7383821477       39.6493546933  TIP3      5049            0.0000000000
     40064      5250  TIP3      OH2            33.8519768049        8.0091770123       39.0034576086  TIP3      5050            0.0000000000
     40065      5250  TIP3      H1             33.6609929552        7.6277846412       38.1276875462  TIP3      5050            0.0000000000
     40066      5250  TIP3      H2             33.9438419361        8.9689184822       38.8055472557  TIP3      5050            0.0000000000
     40067      5251  TIP3      OH2            24.4002212078       16.3360774376       40.6223343200  TIP3      5051            0.0000000000
     40068      5251  TIP3      H1             25.3146031228       16.6140580046       40.8243190915  TIP3      5051            0.0000000000
     40069      5251  TIP3      H2             24.1992615734       17.0115483570       39.9389860137  TIP3      5051            0.0000000000
     40070      5252  TIP3      OH2            17.9069595368       10.9694599181       40.1068106325  TIP3      5052            0.0000000000
     40071      5252  TIP3      H1             18.8684922822       11.0633668828       40.3282880583  TIP3      5052            0.0000000000
     40072      5252  TIP3      H2             17.9701208930       10.3104959959       39.3780254741  TIP3      5052            0.0000000000
     40073      5253  TIP3      OH2            16.6611102486       16.3672266719       45.1029967134  TIP3      5053            0.0000000000
     40074      5253  TIP3      H1             15.9884866131       15.8352740612       44.6247730970  TIP3      5053            0.0000000000
     40075      5253  TIP3      H2             16.9988346966       15.6996648440       45.7349967040  TIP3      5053            0.0000000000
     40076      5254  TIP3      OH2            17.4310383029       14.5106923385       46.9056519043  TIP3      5054            0.0000000000
     40077      5254  TIP3      H1             17.2132631558       13.5890446179       47.1121748189  TIP3      5054            0.0000000000
     40078      5254  TIP3      H2             17.8132106088       14.8028065697       47.7717642465  TIP3      5054            0.0000000000
     40079      5255  TIP3      OH2            34.3410773730        8.9390330704       42.9651387577  TIP3      5055            0.0000000000
     40080      5255  TIP3      H1             35.2205619221        9.3130624901       43.1285955291  TIP3      5055            0.0000000000
     40081      5255  TIP3      H2             34.3637271374        8.1975809297       43.6063455132  TIP3      5055            0.0000000000
     40082      5256  TIP3      OH2            34.7646112179        6.9880418144       44.8103963753  TIP3      5056            0.0000000000
     40083      5256  TIP3      H1             34.0153609186        6.5024778225       45.2196619335  TIP3      5056            0.0000000000
     40084      5256  TIP3      H2             35.3632495208        7.1385866559       45.5711347102  TIP3      5056            0.0000000000
     40085      5257  TIP3      OH2            34.6164466488        9.9482007373       49.6859377648  TIP3      5057            0.0000000000
     40086      5257  TIP3      H1             35.4084387173        9.4318366295       49.4491121570  TIP3      5057            0.0000000000
     40087      5257  TIP3      H2             34.8014405728       10.8883971141       49.5603853039  TIP3      5057            0.0000000000
     40088      5258  TIP3      OH2            35.0525331078        6.8253107085       41.2333206891  TIP3      5058            0.0000000000
     40089      5258  TIP3      H1             34.4951379729        7.1684840845       40.5060208512  TIP3      5058            0.0000000000
     40090      5258  TIP3      H2             34.9722517304        7.5511492588       41.8778104615  TIP3      5058            0.0000000000
     40091      5259  TIP3      OH2            33.4117805423        4.0533984093       39.7309132561  TIP3      5059            0.0000000000
     40092      5259  TIP3      H1             33.5094125838        4.7139686425       39.0369383917  TIP3      5059            0.0000000000
     40093      5259  TIP3      H2             33.2377341435        3.2266193595       39.2425126946  TIP3      5059            0.0000000000
     40094      5260  TIP3      OH2            32.5752056138        5.4624332446       45.4365829152  TIP3      5060            0.0000000000
     40095      5260  TIP3      H1             32.4256491868        4.5070164994       45.3822494921  TIP3      5060            0.0000000000
     40096      5260  TIP3      H2             32.2255841979        5.6675617106       46.3217877226  TIP3      5060            0.0000000000
     40097      5261  TIP3      OH2            17.5489660698        7.5876060082       49.3319662275  TIP3      5061            0.0000000000
     40098      5261  TIP3      H1             17.8027577373        7.4897017500       48.3974532505  TIP3      5061            0.0000000000
     40099      5261  TIP3      H2             18.3739647413        7.4213478940       49.8243750917  TIP3      5061            0.0000000000
     40100      5262  TIP3      OH2            32.6617766334        1.5187233263       38.8833740131  TIP3      5062            0.0000000000
     40101      5262  TIP3      H1             33.2533485111        1.0804396116       39.5203248680  TIP3      5062            0.0000000000
     40102      5262  TIP3      H2             31.7963636969        1.1052308454       39.0329350694  TIP3      5062            0.0000000000
     40103      5263  TIP3      OH2            32.2161463989        3.0546631037       43.8185292039  TIP3      5063            0.0000000000
     40104      5263  TIP3      H1             32.5320095268        2.1346788762       43.9832838063  TIP3      5063            0.0000000000
     40105      5263  TIP3      H2             33.0410567274        3.4631748021       43.5217929483  TIP3      5063            0.0000000000
     40106      5264  TIP3      OH2            32.8479118778        3.7211166358       48.8714020676  TIP3      5064            0.0000000000
     40107      5264  TIP3      H1             33.8077597415        3.7472456638       49.0664301636  TIP3      5064            0.0000000000
     40108      5264  TIP3      H2             32.4838506293        3.6482082104       49.7790714066  TIP3      5064            0.0000000000
     40109      5265  TIP3      OH2            32.8827242129        0.3565966993       43.9123509488  TIP3      5065            0.0000000000
     40110      5265  TIP3      H1             33.1191705820       -0.0836721846       44.7617673748  TIP3      5065            0.0000000000
     40111      5265  TIP3      H2             32.3065549204       -0.2981453322       43.4722137797  TIP3      5065            0.0000000000
     40112      5266  TIP3      OH2            18.3880826742        1.2053147323       48.3914343328  TIP3      5066            0.0000000000
     40113      5266  TIP3      H1             18.7789966581        0.3470693000       48.6925953510  TIP3      5066            0.0000000000
     40114      5266  TIP3      H2             18.9343664878        1.8104776044       48.9313032524  TIP3      5066            0.0000000000
     40115      5267  TIP3      OH2            16.6588673918        4.1306004031       49.5077439276  TIP3      5067            0.0000000000
     40116      5267  TIP3      H1             17.2346275533        3.9192496420       48.7550610422  TIP3      5067            0.0000000000
     40117      5267  TIP3      H2             17.0850347807        4.9656743294       49.7793373412  TIP3      5067            0.0000000000
     40118      5268  TIP3      OH2            34.7212381890        0.3730638497       40.4802981315  TIP3      5068            0.0000000000
     40119      5268  TIP3      H1             35.1206082648       -0.3337142769       39.9262342361  TIP3      5068            0.0000000000
     40120      5268  TIP3      H2             35.4167675854        1.0463101478       40.5037468772  TIP3      5068            0.0000000000
     40121      5269  TIP3      OH2            17.0407838487        0.5053191144       43.6333017013  TIP3      5069            0.0000000000
     40122      5269  TIP3      H1             16.0972362622        0.5521036354       43.4014266575  TIP3      5069            0.0000000000
     40123      5269  TIP3      H2             17.4553195648        0.8719665874       42.8307348028  TIP3      5069            0.0000000000
     40124      5270  TIP3      OH2            31.7750659078       15.3761794352       45.5152380348  TIP3      5070            0.0000000000
     40125      5270  TIP3      H1             32.4541893536       15.0637156479       44.8904676358  TIP3      5070            0.0000000000
     40126      5270  TIP3      H2             32.2945440378       15.8771307113       46.1643672957  TIP3      5070            0.0000000000
     40127      5271  TIP3      OH2            18.7918349202       15.0177047340       49.0053446691  TIP3      5071            0.0000000000
     40128      5271  TIP3      H1             18.9063102502       14.8781004281       49.9532999127  TIP3      5071            0.0000000000
     40129      5271  TIP3      H2             19.7176577871       14.8333542759       48.7318529699  TIP3      5071            0.0000000000
     40130      5272  TIP3      OH2            21.0462019747       13.8898618887       47.9593118427  TIP3      5072            0.0000000000
     40131      5272  TIP3      H1             20.9326619309       12.9259553403       48.0606233576  TIP3      5072            0.0000000000
     40132      5272  TIP3      H2             21.9372123953       13.9974138806       48.3376375568  TIP3      5072            0.0000000000
     40133      5273  TIP3      OH2            23.6463300114       14.3612499857       48.7691742348  TIP3      5073            0.0000000000
     40134      5273  TIP3      H1             23.8328036846       13.4487488503       48.4830183361  TIP3      5073            0.0000000000
     40135      5273  TIP3      H2             23.6950407709       14.2716225915       49.7257652316  TIP3      5073            0.0000000000
     40136      5274  TIP3      OH2            27.1486378414        0.0571101376       47.9036988907  TIP3      5074            0.0000000000
     40137      5274  TIP3      H1             26.5041418401       -0.6005159414       48.2331460689  TIP3      5074            0.0000000000
     40138      5274  TIP3      H2             27.7201026682       -0.5230644106       47.3832790434  TIP3      5074            0.0000000000
     40139      5275  TIP3      OH2            32.2987040915       -1.8999438699       47.9860389634  TIP3      5075            0.0000000000
     40140      5275  TIP3      H1             32.8910134920       -1.3131829345       47.4669616506  TIP3      5075            0.0000000000
     40141      5275  TIP3      H2             31.4025428604       -1.5542126870       47.7903033382  TIP3      5075            0.0000000000
     40142      5276  TIP3      OH2            33.9775921929       -0.6910131767       46.2702400966  TIP3      5076            0.0000000000
     40143      5276  TIP3      H1             34.6488706679       -1.2693643737       45.8455510199  TIP3      5076            0.0000000000
     40144      5276  TIP3      H2             34.4710707235        0.1543753947       46.3632936653  TIP3      5076            0.0000000000
     40145      5277  TIP3      OH2            19.5191178328       -1.3554671733       45.7079644977  TIP3      5077            0.0000000000
     40146      5277  TIP3      H1             18.7150972147       -1.5921349549       45.2111053376  TIP3      5077            0.0000000000
     40147      5277  TIP3      H2             19.9765093088       -2.2165972535       45.7212290269  TIP3      5077            0.0000000000
     40148      5278  TIP3      OH2            18.2854641315       -1.6200846994       41.4840447590  TIP3      5078            0.0000000000
     40149      5278  TIP3      H1             18.7795483876       -0.9674916686       40.9535266357  TIP3      5078            0.0000000000
     40150      5278  TIP3      H2             17.7093869331       -1.0578388278       42.0132668160  TIP3      5078            0.0000000000
     40151      5279  TIP3      OH2            24.0230314268       -1.5527682626       45.5627756041  TIP3      5079            0.0000000000
     40152      5279  TIP3      H1             24.8734368804       -1.0804478092       45.4623863373  TIP3      5079            0.0000000000
     40153      5279  TIP3      H2             23.9649215581       -1.6365479866       46.5131576925  TIP3      5079            0.0000000000
     40154      5280  TIP3      OH2            29.7157142933       -1.4134260207       47.1553185523  TIP3      5080            0.0000000000
     40155      5280  TIP3      H1             29.6577372724       -1.3058648701       46.2048602162  TIP3      5080            0.0000000000
     40156      5280  TIP3      H2             29.3087885556       -2.2983326558       47.3136221093  TIP3      5080            0.0000000000
     40157      5281  TIP3      OH2            30.9690505714       -1.4020234530       42.8646699827  TIP3      5081            0.0000000000
     40158      5281  TIP3      H1             30.2217282731       -0.8053606397       42.7063672222  TIP3      5081            0.0000000000
     40159      5281  TIP3      H2             30.5297419420       -2.2509471749       43.0980486958  TIP3      5081            0.0000000000
     40160      5282  TIP3      OH2            18.2236817696       14.3696790360       42.4615578953  TIP3      5082            0.0000000000
     40161      5282  TIP3      H1             17.4996310113       14.3141127621       41.8147569657  TIP3      5082            0.0000000000
     40162      5282  TIP3      H2             18.1704604656       15.2977256667       42.7061450180  TIP3      5082            0.0000000000
     40163      5283  TIP3      OH2            20.1139285262        0.3409027477       39.9918544754  TIP3      5083            0.0000000000
     40164      5283  TIP3      H1             20.6413682753       -0.2873041353       39.4724537267  TIP3      5083            0.0000000000
     40165      5283  TIP3      H2             20.7780832877        0.6476462378       40.6373170675  TIP3      5083            0.0000000000
     40166      5284  TIP3      OH2            25.1210379527        0.5675350636       42.4119094524  TIP3      5084            0.0000000000
     40167      5284  TIP3      H1             25.3958968369       -0.0107622939       43.1424616876  TIP3      5084            0.0000000000
     40168      5284  TIP3      H2             25.2127873790        1.4350128622       42.8639520465  TIP3      5084            0.0000000000
     40169      5285  TIP3      OH2            27.1835775668       15.8246156663       41.0444047777  TIP3      5085            0.0000000000
     40170      5285  TIP3      H1             28.1301533682       15.9800693424       40.8101318046  TIP3      5085            0.0000000000
     40171      5285  TIP3      H2             27.0176082295       15.2204479470       40.3625171496  TIP3      5085            0.0000000000
     40172      5286  TIP3      OH2            33.7849449795       15.1436263967       43.5722095484  TIP3      5086            0.0000000000
     40173      5286  TIP3      H1             33.5969912790       14.3565308361       43.0092255430  TIP3      5086            0.0000000000
     40174      5286  TIP3      H2             33.7044843712       15.8751745337       42.9285019382  TIP3      5086            0.0000000000
     40175      5287  TIP3      OH2            20.0159910310       15.3580433712       39.4877153252  TIP3      5087            0.0000000000
     40176      5287  TIP3      H1             19.7001445740       15.5459362917       40.3802168689  TIP3      5087            0.0000000000
     40177      5287  TIP3      H2             20.7262561490       14.7053065698       39.6115470613  TIP3      5087            0.0000000000
     40178      5288  TIP3      OH2           -40.4077532328       10.6094255714       49.4714357034  TIP3      5088            0.0000000000
     40179      5288  TIP3      H1            -40.6257388485       10.0395011930       48.7111950280  TIP3      5088            0.0000000000
     40180      5288  TIP3      H2            -39.5402145643       10.9379477065       49.1906018500  TIP3      5088            0.0000000000
     40181      5289  TIP3      OH2            36.2008399561        4.6569979595       44.6517719885  TIP3      5089            0.0000000000
     40182      5289  TIP3      H1             35.8068965441        5.5530611939       44.5879308455  TIP3      5089            0.0000000000
     40183      5289  TIP3      H2             35.6141242978        4.1534481824       44.0851139049  TIP3      5089            0.0000000000
     40184      5290  TIP3      OH2            36.9398134278        6.9200843982       46.7728678195  TIP3      5090            0.0000000000
     40185      5290  TIP3      H1             37.1907016734        6.1081454438       47.2542969023  TIP3      5090            0.0000000000
     40186      5290  TIP3      H2             37.6780659682        7.0126096022       46.1509410469  TIP3      5090            0.0000000000
     40187      5291  TIP3      OH2            37.5957682260        4.3509408074       47.8391213680  TIP3      5091            0.0000000000
     40188      5291  TIP3      H1             38.2953447172        3.8689730723       48.3313508534  TIP3      5091            0.0000000000
     40189      5291  TIP3      H2             37.7510509648        4.0406863656       46.9269229905  TIP3      5091            0.0000000000
     40190      5292  TIP3      OH2            39.3221131563        2.3106923910       49.1087989312  TIP3      5092            0.0000000000
     40191      5292  TIP3      H1             39.7610315876        3.0473183497       49.5696604398  TIP3      5092            0.0000000000
     40192      5292  TIP3      H2             39.9209058515        2.1485659769       48.3653034838  TIP3      5092            0.0000000000
     40193      5293  TIP3      OH2            36.9737673279       10.1376266458       42.9966174082  TIP3      5093            0.0000000000
     40194      5293  TIP3      H1             36.6548110031       10.4881580555       42.1540131470  TIP3      5093            0.0000000000
     40195      5293  TIP3      H2             37.0301904443       10.9652043821       43.5266796523  TIP3      5093            0.0000000000
     40196      5294  TIP3      OH2            36.0766402179       12.2379154114       49.0440986855  TIP3      5094            0.0000000000
     40197      5294  TIP3      H1             36.9693117006       11.9301785092       49.2456773227  TIP3      5094            0.0000000000
     40198      5294  TIP3      H2             35.8839531653       12.8774325453       49.7374432481  TIP3      5094            0.0000000000
     40199      5295  TIP3      OH2            39.0148097748       14.4581290289       45.2435111173  TIP3      5095            0.0000000000
     40200      5295  TIP3      H1             39.3308481592       14.4608114708       46.1748799399  TIP3      5095            0.0000000000
     40201      5295  TIP3      H2             38.0668857589       14.4086450149       45.2950507434  TIP3      5095            0.0000000000
     40202      5296  TIP3      OH2            35.5805662528        1.4909148806       46.2674120569  TIP3      5096            0.0000000000
     40203      5296  TIP3      H1             36.2582773662        1.4189407934       46.9786015749  TIP3      5096            0.0000000000
     40204      5296  TIP3      H2             36.0229680325        1.0613949920       45.5152676744  TIP3      5096            0.0000000000
     40205      5297  TIP3      OH2            36.8179392254        2.1449475386       41.6253880598  TIP3      5097            0.0000000000
     40206      5297  TIP3      H1             37.3302689594        2.7710526259       41.0772088534  TIP3      5097            0.0000000000
     40207      5297  TIP3      H2             36.1494427333        2.7656234865       41.9882286148  TIP3      5097            0.0000000000
     40208      5298  TIP3      OH2            38.5626812748        3.4383842177       45.2054460807  TIP3      5098            0.0000000000
     40209      5298  TIP3      H1             37.6236207995        3.4250356809       44.9846176930  TIP3      5098            0.0000000000
     40210      5298  TIP3      H2             38.8838659324        2.5155223033       45.1401546298  TIP3      5098            0.0000000000
     40211      5299  TIP3      OH2            39.1866061359        8.4371717922       48.0500825244  TIP3      5099            0.0000000000
     40212      5299  TIP3      H1             40.0397071844        8.4639938008       47.5860768227  TIP3      5099            0.0000000000
     40213      5299  TIP3      H2             39.3941200949        7.7431958344       48.7151098764  TIP3      5099            0.0000000000
     40214      5300  TIP3      OH2            37.5709743806        6.7506620300       40.2531372402  TIP3      5100            0.0000000000
     40215      5300  TIP3      H1             38.1301988289        7.4237467814       40.6929752177  TIP3      5100            0.0000000000
     40216      5300  TIP3      H2             36.6569175817        7.0451795819       40.4926955666  TIP3      5100            0.0000000000
     40217      5301  TIP3      OH2            38.9638871984        8.6723785415       41.6744407905  TIP3      5101            0.0000000000
     40218      5301  TIP3      H1             38.3179444844        8.9966141058       42.3421141793  TIP3      5101            0.0000000000
     40219      5301  TIP3      H2             39.4363813820        9.4891837073       41.5031677031  TIP3      5101            0.0000000000
     40220      5302  TIP3      OH2            39.2683865239       11.3617206662       40.7196402474  TIP3      5102            0.0000000000
     40221      5302  TIP3      H1             39.9789302813       11.9703732756       40.9822942714  TIP3      5102            0.0000000000
     40222      5302  TIP3      H2             39.8379355718       10.8990321454       40.0708396664  TIP3      5102            0.0000000000
     40223      5303  TIP3      OH2            37.8977247009        3.9971660967       39.7818640917  TIP3      5103            0.0000000000
     40224      5303  TIP3      H1             37.8531238810        4.9585861057       39.9524699769  TIP3      5103            0.0000000000
     40225      5303  TIP3      H2             37.0211619673        3.7984703620       39.4401734024  TIP3      5103            0.0000000000
     40226      5304  TIP3      OH2            38.7021195865       -1.2843237341       48.5219070599  TIP3      5104            0.0000000000
     40227      5304  TIP3      H1             38.4766315016       -1.1690682585       47.5697130043  TIP3      5104            0.0000000000
     40228      5304  TIP3      H2             38.2109827323       -2.0796137469       48.7418267750  TIP3      5104            0.0000000000
     40229      5305  TIP3      OH2            37.4844716878       12.5413106061       44.5346299418  TIP3      5105            0.0000000000
     40230      5305  TIP3      H1             36.7371119923       13.1531566034       44.5593992281  TIP3      5105            0.0000000000
     40231      5305  TIP3      H2             38.1343826475       13.0860584326       44.0350170641  TIP3      5105            0.0000000000
     40232      5306  TIP3      OH2            36.7630510015       11.0042457850       40.0741040104  TIP3      5106            0.0000000000
     40233      5306  TIP3      H1             37.7165238608       11.0621406132       40.3219404014  TIP3      5106            0.0000000000
     40234      5306  TIP3      H2             36.8120378592       10.2984745338       39.3917134457  TIP3      5106            0.0000000000
     40235      5307  TIP3      OH2            35.5314886424       16.3502861115       45.0938983860  TIP3      5107            0.0000000000
     40236      5307  TIP3      H1             34.8253393276       15.8433439958       44.6338980929  TIP3      5107            0.0000000000
     40237      5307  TIP3      H2             35.8252310103       15.6945976129       45.7588653718  TIP3      5107            0.0000000000
     40238      5308  TIP3      OH2            36.3023495065       14.4775905703       46.8786731838  TIP3      5108            0.0000000000
     40239      5308  TIP3      H1             36.0525641293       13.5753367892       47.1266663867  TIP3      5108            0.0000000000
     40240      5308  TIP3      H2             36.6346232288       14.7953523566       47.7593836963  TIP3      5108            0.0000000000
     40241      5309  TIP3      OH2            36.4370062340        7.6306181366       49.3250417267  TIP3      5109            0.0000000000
     40242      5309  TIP3      H1             36.6547409714        7.4471830456       48.3921975758  TIP3      5109            0.0000000000
     40243      5309  TIP3      H2             37.2549724708        7.3838530435       49.7934600963  TIP3      5109            0.0000000000
     40244      5310  TIP3      OH2            37.1486632402        1.1166260133       48.5191630455  TIP3      5110            0.0000000000
     40245      5310  TIP3      H1             37.7098432507        0.3287670523       48.6638428202  TIP3      5110            0.0000000000
     40246      5310  TIP3      H2             37.7795022628        1.7892695262       48.8484395219  TIP3      5110            0.0000000000
     40247      5311  TIP3      OH2            35.5611576571        4.1030288243       49.5166938080  TIP3      5111            0.0000000000
     40248      5311  TIP3      H1             36.1023527026        3.9018623846       48.7191494784  TIP3      5111            0.0000000000
     40249      5311  TIP3      H2             35.9362278783        4.9709642898       49.7393926366  TIP3      5111            0.0000000000
     40250      5312  TIP3      OH2            35.9163925748        0.3999186299       43.5689426183  TIP3      5112            0.0000000000
     40251      5312  TIP3      H1             34.9713538649        0.5863402417       43.4295804728  TIP3      5112            0.0000000000
     40252      5312  TIP3      H2             36.3342641933        0.8972480157       42.8496824617  TIP3      5112            0.0000000000
     40253      5313  TIP3      OH2            37.6334781531       14.9720965835       48.9699570344  TIP3      5113            0.0000000000
     40254      5313  TIP3      H1             37.7251353081       14.8706003472       49.9320621104  TIP3      5113            0.0000000000
     40255      5313  TIP3      H2             38.5806481682       14.9041936820       48.7893014875  TIP3      5113            0.0000000000
     40256      5314  TIP3      OH2            38.0514132291       -1.3230988659       45.8823208261  TIP3      5114            0.0000000000
     40257      5314  TIP3      H1             37.4372549765       -1.5553249787       45.1735510652  TIP3      5114            0.0000000000
     40258      5314  TIP3      H2             38.7895926218       -1.9453427691       45.7916865606  TIP3      5114            0.0000000000
     40259      5315  TIP3      OH2            37.1332670459       -1.6117391691       41.4963598931  TIP3      5115            0.0000000000
     40260      5315  TIP3      H1             37.6160339647       -0.9632218043       40.9484304814  TIP3      5115            0.0000000000
     40261      5315  TIP3      H2             36.5589292888       -1.0395553939       42.0325796248  TIP3      5115            0.0000000000
     40262      5316  TIP3      OH2            37.0311383514       14.3221008385       42.4950739091  TIP3      5116            0.0000000000
     40263      5316  TIP3      H1             36.3726978355       14.3260146356       41.7811952920  TIP3      5116            0.0000000000
     40264      5316  TIP3      H2             37.0546264826       15.2702184779       42.6843134798  TIP3      5116            0.0000000000
     40265      5317  TIP3      OH2            38.9892689238        0.3401863990       40.0557834371  TIP3      5117            0.0000000000
     40266      5317  TIP3      H1             39.5086264636       -0.2788861630       39.5228205859  TIP3      5117            0.0000000000
     40267      5317  TIP3      H2             39.6496321585        0.7038867389       40.6532537811  TIP3      5117            0.0000000000
     40268      5318  TIP3      OH2            38.8340401215       15.2644671405       39.4573095471  TIP3      5118            0.0000000000
     40269      5318  TIP3      H1             38.5884410244       15.6348578840       40.3212373534  TIP3      5118            0.0000000000
     40270      5318  TIP3      H2             39.6549887588       14.7980555633       39.6432975121  TIP3      5118            0.0000000000
     40271      5319  TIP3      OH2           -27.9663727081       26.6198786696       45.6303628553  TIP3      5119            0.0000000000
     40272      5319  TIP3      H1            -27.9691119107       27.6013693655       45.6002608820  TIP3      5119            0.0000000000
     40273      5319  TIP3      H2            -28.6926732840       26.3931148615       45.0261031152  TIP3      5119            0.0000000000
     40274      5320  TIP3      OH2           -29.0895128572       25.8777281399       49.1376442201  TIP3      5120            0.0000000000
     40275      5320  TIP3      H1            -29.1593803812       25.2321833118       49.8637307254  TIP3      5120            0.0000000000
     40276      5320  TIP3      H2            -29.3979619614       25.3995784621       48.3547181987  TIP3      5120            0.0000000000
     40277      5321  TIP3      OH2           -25.5123917455       28.7876348954       47.3527230262  TIP3      5121            0.0000000000
     40278      5321  TIP3      H1            -25.8530411732       28.0683306478       47.9120717474  TIP3      5121            0.0000000000
     40279      5321  TIP3      H2            -25.3738831914       29.4756721079       48.0605098580  TIP3      5121            0.0000000000
     40280      5322  TIP3      OH2           -35.8524478477       30.0608148105       49.0684701737  TIP3      5122            0.0000000000
     40281      5322  TIP3      H1            -36.1292697487       29.1519660796       48.8547984048  TIP3      5122            0.0000000000
     40282      5322  TIP3      H2            -34.9012183603       29.8548421290       49.2192796762  TIP3      5122            0.0000000000
     40283      5323  TIP3      OH2           -39.0766796277       23.6345784846       44.5076056814  TIP3      5123            0.0000000000
     40284      5323  TIP3      H1            -39.5894200536       24.4424847529       44.6479055598  TIP3      5123            0.0000000000
     40285      5323  TIP3      H2            -39.7892723226       23.0213955134       44.2500229134  TIP3      5123            0.0000000000
     40286      5324  TIP3      OH2           -38.4590683512       25.8095601816       46.8062350061  TIP3      5124            0.0000000000
     40287      5324  TIP3      H1            -38.2494932399       24.9685251457       47.2499801727  TIP3      5124            0.0000000000
     40288      5324  TIP3      H2            -37.7464921648       25.8921851059       46.1573835109  TIP3      5124            0.0000000000
     40289      5325  TIP3      OH2           -28.2974259953       33.9995608342       47.7173043364  TIP3      5125            0.0000000000
     40290      5325  TIP3      H1            -27.6699013016       33.3294533957       47.3424330082  TIP3      5125            0.0000000000
     40291      5325  TIP3      H2            -28.5036558145       33.5900539507       48.5539487009  TIP3      5125            0.0000000000
     40292      5326  TIP3      OH2           -30.6759778954       28.3357087294       49.5622748490  TIP3      5126            0.0000000000
     40293      5326  TIP3      H1            -30.3387110323       27.6418243759       48.9700379761  TIP3      5126            0.0000000000
     40294      5326  TIP3      H2            -29.9235739733       28.4045099105       50.1581636474  TIP3      5126            0.0000000000
     40295      5327  TIP3      OH2           -27.5206346071       22.7447448409       49.8908651060  TIP3      5127            0.0000000000
     40296      5327  TIP3      H1            -27.4063636059       21.7804801012       49.9034384994  TIP3      5127            0.0000000000
     40297      5327  TIP3      H2            -27.6425920537       22.8911343314       48.9283069263  TIP3      5127            0.0000000000
     40298      5328  TIP3      OH2           -34.4409080120       20.8293580659       47.1152102901  TIP3      5128            0.0000000000
     40299      5328  TIP3      H1            -34.3354271152       21.6687525474       46.6340204908  TIP3      5128            0.0000000000
     40300      5328  TIP3      H2            -34.8466435515       20.2521245229       46.4333044704  TIP3      5128            0.0000000000
     40301      5329  TIP3      OH2           -26.7299042642       20.9248034822       45.4779082811  TIP3      5129            0.0000000000
     40302      5329  TIP3      H1            -26.0910983054       20.5975352217       46.1573567657  TIP3      5129            0.0000000000
     40303      5329  TIP3      H2            -26.1424025685       21.4967658237       44.9664637144  TIP3      5129            0.0000000000
     40304      5330  TIP3      OH2           -37.8221578453       23.2027919460       47.8654604252  TIP3      5130            0.0000000000
     40305      5330  TIP3      H1            -37.1387884889       22.6670644852       48.3110783004  TIP3      5130            0.0000000000
     40306      5330  TIP3      H2            -37.7207480574       22.9036973233       46.9494689325  TIP3      5130            0.0000000000
     40307      5331  TIP3      OH2           -32.6635178381       24.7799128679       47.1593933742  TIP3      5131            0.0000000000
     40308      5331  TIP3      H1            -31.9909904439       24.1987732209       47.5642749067  TIP3      5131            0.0000000000
     40309      5331  TIP3      H2            -33.1870149476       24.1346843971       46.6430044314  TIP3      5131            0.0000000000
     40310      5332  TIP3      OH2           -28.2691691802       29.2129772544       44.7366078916  TIP3      5132            0.0000000000
     40311      5332  TIP3      H1            -28.5068646361       28.9372018710       43.8434688739  TIP3      5132            0.0000000000
     40312      5332  TIP3      H2            -28.5561197670       30.1511780281       44.7791287088  TIP3      5132            0.0000000000
     40313      5333  TIP3      OH2           -24.9623753059       20.2568228256       47.4656335161  TIP3      5133            0.0000000000
     40314      5333  TIP3      H1            -25.1335428702       19.5087688579       48.0527050178  TIP3      5133            0.0000000000
     40315      5333  TIP3      H2            -24.2746857629       20.6960321142       48.0024770908  TIP3      5133            0.0000000000
     40316      5334  TIP3      OH2           -35.9689953272       21.5946411933       49.1270019715  TIP3      5134            0.0000000000
     40317      5334  TIP3      H1            -35.4050526223       22.2871132966       49.4687992538  TIP3      5134            0.0000000000
     40318      5334  TIP3      H2            -35.4372391474       21.1746783482       48.4178785370  TIP3      5134            0.0000000000
     40319      5335  TIP3      OH2           -38.4270922745       29.0379866121       42.9631770943  TIP3      5135            0.0000000000
     40320      5335  TIP3      H1            -38.7866252701       29.3540837027       42.1374202590  TIP3      5135            0.0000000000
     40321      5335  TIP3      H2            -38.4471776050       29.8293442798       43.5299315530  TIP3      5135            0.0000000000
     40322      5336  TIP3      OH2           -24.8430881997       30.3767622061       49.2887619952  TIP3      5136            0.0000000000
     40323      5336  TIP3      H1            -25.6328887332       30.4980076562       49.8575004780  TIP3      5136            0.0000000000
     40324      5336  TIP3      H2            -24.4787828129       31.2501702449       49.4641308923  TIP3      5136            0.0000000000
     40325      5337  TIP3      OH2           -31.5757058686       17.1005668012       48.5966856939  TIP3      5137            0.0000000000
     40326      5337  TIP3      H1            -31.6676238241       16.1302527435       48.5572226028  TIP3      5137            0.0000000000
     40327      5337  TIP3      H2            -32.4650936888       17.3855107884       48.8945230710  TIP3      5137            0.0000000000
     40328      5338  TIP3      OH2           -26.6718638578       32.4645117170       46.3462207905  TIP3      5138            0.0000000000
     40329      5338  TIP3      H1            -26.2170118689       31.7414608436       45.8582096489  TIP3      5138            0.0000000000
     40330      5338  TIP3      H2            -26.2041841880       33.2582964536       46.0029745303  TIP3      5138            0.0000000000
     40331      5339  TIP3      OH2           -25.4227333293       30.4048527335       44.9165629456  TIP3      5139            0.0000000000
     40332      5339  TIP3      H1            -25.7164685384       29.6974201589       44.3177234354  TIP3      5139            0.0000000000
     40333      5339  TIP3      H2            -25.3838198816       29.9006274759       45.7512956960  TIP3      5139            0.0000000000
     40334      5340  TIP3      OH2           -29.3052745693       25.8581336830       43.1399480765  TIP3      5140            0.0000000000
     40335      5340  TIP3      H1            -30.0011241893       26.4358431813       42.7787837245  TIP3      5140            0.0000000000
     40336      5340  TIP3      H2            -28.5966011954       25.9537706111       42.4776447571  TIP3      5140            0.0000000000
     40337      5341  TIP3      OH2           -29.2248319129       24.4299047798       40.1493658906  TIP3      5141            0.0000000000
     40338      5341  TIP3      H1            -28.5207502284       24.4106729703       40.8150939371  TIP3      5141            0.0000000000
     40339      5341  TIP3      H2            -28.9194278480       23.7102529326       39.5821921847  TIP3      5141            0.0000000000
     40340      5342  TIP3      OH2           -25.8523618180       26.0727577645       44.0523905400  TIP3      5142            0.0000000000
     40341      5342  TIP3      H1            -26.6016528899       26.3105633404       44.6477918212  TIP3      5142            0.0000000000
     40342      5342  TIP3      H2            -25.3899167281       25.3901965986       44.5669372842  TIP3      5142            0.0000000000
     40343      5343  TIP3      OH2           -34.2537222642       26.7319038570       45.9840319251  TIP3      5143            0.0000000000
     40344      5343  TIP3      H1            -34.5826203129       26.3458937681       45.1371217465  TIP3      5143            0.0000000000
     40345      5343  TIP3      H2            -33.6179647220       26.0462343660       46.2763881215  TIP3      5143            0.0000000000
     40346      5344  TIP3      OH2           -32.8425128706       30.1818251116       48.6149721127  TIP3      5144            0.0000000000
     40347      5344  TIP3      H1            -32.9218417869       29.6001548556       47.8468810342  TIP3      5144            0.0000000000
     40348      5344  TIP3      H2            -32.1382361837       29.7466127131       49.1260219441  TIP3      5144            0.0000000000
     40349      5345  TIP3      OH2           -34.0438166666       25.5705088807       49.4827249475  TIP3      5145            0.0000000000
     40350      5345  TIP3      H1            -33.3936372286       25.6270407558       48.7674687574  TIP3      5145            0.0000000000
     40351      5345  TIP3      H2            -33.5755284442       26.0197299849       50.2061076011  TIP3      5145            0.0000000000
     40352      5346  TIP3      OH2           -26.9770883596       25.2763972685       41.7296069182  TIP3      5146            0.0000000000
     40353      5346  TIP3      H1            -26.4243407175       25.4545305586       42.5328988293  TIP3      5146            0.0000000000
     40354      5346  TIP3      H2            -26.5274375954       25.7690971330       41.0062493954  TIP3      5146            0.0000000000
     40355      5347  TIP3      OH2           -29.2731939190       31.9840663381       45.1875409250  TIP3      5147            0.0000000000
     40356      5347  TIP3      H1            -28.8382570873       32.3005432840       45.9862772435  TIP3      5147            0.0000000000
     40357      5347  TIP3      H2            -29.8304442341       32.7346136538       44.9499218041  TIP3      5147            0.0000000000
     40358      5348  TIP3      OH2           -23.2553274255       17.0025856088       41.6352963742  TIP3      5148            0.0000000000
     40359      5348  TIP3      H1            -24.2031212403       17.1163867011       41.8719637795  TIP3      5148            0.0000000000
     40360      5348  TIP3      H2            -23.0546718445       17.8423568841       41.1878876943  TIP3      5148            0.0000000000
     40361      5349  TIP3      OH2           -35.2709410326       25.7514114542       43.5899367379  TIP3      5149            0.0000000000
     40362      5349  TIP3      H1            -35.5774126099       26.5308559890       43.0785305083  TIP3      5149            0.0000000000
     40363      5349  TIP3      H2            -35.9287958877       25.0892029465       43.3701437537  TIP3      5149            0.0000000000
     40364      5350  TIP3      OH2           -22.1434327612       31.3556480591       39.9819138879  TIP3      5150            0.0000000000
     40365      5350  TIP3      H1            -21.9776829998       32.2988916869       40.1511078139  TIP3      5150            0.0000000000
     40366      5350  TIP3      H2            -21.2203488585       31.0422351349       39.9791382870  TIP3      5150            0.0000000000
     40367      5351  TIP3      OH2           -38.9629916197       31.5301124550       49.0217758189  TIP3      5151            0.0000000000
     40368      5351  TIP3      H1            -38.3119344145       30.8741238193       49.3147087948  TIP3      5151            0.0000000000
     40369      5351  TIP3      H2            -39.4684456125       31.6770243785       49.8169176023  TIP3      5151            0.0000000000
     40370      5352  TIP3      OH2           -29.8066077588       34.8940569525       43.6084705078  TIP3      5152            0.0000000000
     40371      5352  TIP3      H1            -29.9050646699       34.8204462859       42.6439920692  TIP3      5152            0.0000000000
     40372      5352  TIP3      H2            -29.7995736464       35.8534207440       43.7633974163  TIP3      5152            0.0000000000
     40373      5353  TIP3      OH2           -36.1398007302       33.7802105994       45.4155505906  TIP3      5153            0.0000000000
     40374      5353  TIP3      H1            -35.9853086606       33.3688161717       46.2943067642  TIP3      5153            0.0000000000
     40375      5353  TIP3      H2            -36.9902081421       33.3731635559       45.1914569447  TIP3      5153            0.0000000000
     40376      5354  TIP3      OH2           -26.7283452457       34.1312047425       40.5833986598  TIP3      5154            0.0000000000
     40377      5354  TIP3      H1            -26.2772772972       33.3629958297       40.1553620940  TIP3      5154            0.0000000000
     40378      5354  TIP3      H2            -26.6956622699       33.8640611747       41.5305628321  TIP3      5154            0.0000000000
     40379      5355  TIP3      OH2           -27.0360609700       34.0478433725       43.3499248804  TIP3      5155            0.0000000000
     40380      5355  TIP3      H1            -27.9910107772       34.1415984436       43.5523974849  TIP3      5155            0.0000000000
     40381      5355  TIP3      H2            -26.8042330102       33.3129102198       43.9409716445  TIP3      5155            0.0000000000
     40382      5356  TIP3      OH2           -34.2480393132       17.9495085254       49.4188788037  TIP3      5156            0.0000000000
     40383      5356  TIP3      H1            -35.1258793672       17.8329202262       48.9788005131  TIP3      5156            0.0000000000
     40384      5356  TIP3      H2            -34.3186842318       18.8160386047       49.8267955517  TIP3      5156            0.0000000000
     40385      5357  TIP3      OH2           -25.5331970577       26.3065616271       39.5428411530  TIP3      5157            0.0000000000
     40386      5357  TIP3      H1            -25.5535994346       26.1118507687       38.5775129470  TIP3      5157            0.0000000000
     40387      5357  TIP3      H2            -24.6734969939       26.7487655655       39.5950380763  TIP3      5157            0.0000000000
     40388      5358  TIP3      OH2           -29.9370680408       20.2269094411       40.0528332317  TIP3      5158            0.0000000000
     40389      5358  TIP3      H1            -30.2565004400       20.1640243842       40.9710553286  TIP3      5158            0.0000000000
     40390      5358  TIP3      H2            -30.2452032064       19.3498016318       39.7464116426  TIP3      5158            0.0000000000
     40391      5359  TIP3      OH2           -34.1612138240       23.0718956806       45.4723666520  TIP3      5159            0.0000000000
     40392      5359  TIP3      H1            -35.0967102951       22.8098289010       45.3561707517  TIP3      5159            0.0000000000
     40393      5359  TIP3      H2            -33.7924396241       22.7731956216       44.6177329005  TIP3      5159            0.0000000000
     40394      5360  TIP3      OH2           -28.6426187483       23.5656656985       44.2628209596  TIP3      5160            0.0000000000
     40395      5360  TIP3      H1            -29.0289057734       24.3999400538       43.9136968209  TIP3      5160            0.0000000000
     40396      5360  TIP3      H2            -27.9502184059       23.3974999346       43.6038703532  TIP3      5160            0.0000000000
     40397      5361  TIP3      OH2           -27.6266771770       23.0398573573       47.1211143474  TIP3      5161            0.0000000000
     40398      5361  TIP3      H1            -27.8630047301       23.6202773350       46.3740640076  TIP3      5161            0.0000000000
     40399      5361  TIP3      H2            -27.4930419663       22.2057881454       46.6211100414  TIP3      5161            0.0000000000
     40400      5362  TIP3      OH2           -33.1226050889       20.5922179456       39.1690236664  TIP3      5162            0.0000000000
     40401      5362  TIP3      H1            -33.5804302488       20.1721111194       39.9286945585  TIP3      5162            0.0000000000
     40402      5362  TIP3      H2            -33.8370488588       21.0239230785       38.6796542517  TIP3      5162            0.0000000000
     40403      5363  TIP3      OH2           -39.8062067653       20.3168953126       46.2154476103  TIP3      5163            0.0000000000
     40404      5363  TIP3      H1            -39.1746123260       20.2340960103       46.9578330844  TIP3      5163            0.0000000000
     40405      5363  TIP3      H2            -39.3882935726       19.8147813723       45.5087841511  TIP3      5163            0.0000000000
     40406      5364  TIP3      OH2           -38.5576824086       21.0722076591       41.6696677929  TIP3      5164            0.0000000000
     40407      5364  TIP3      H1            -38.0447497933       21.6783833080       41.0935788963  TIP3      5164            0.0000000000
     40408      5364  TIP3      H2            -39.2480417269       21.6392489140       42.0092894933  TIP3      5164            0.0000000000
     40409      5365  TIP3      OH2           -31.6011972771       20.6667552250       46.5164052605  TIP3      5165            0.0000000000
     40410      5365  TIP3      H1            -32.5328783926       20.6132431529       46.8046150963  TIP3      5165            0.0000000000
     40411      5365  TIP3      H2            -31.1044487494       20.4465171290       47.3173345340  TIP3      5165            0.0000000000
     40412      5366  TIP3      OH2           -36.7726864047       22.1617726316       45.3742945135  TIP3      5166            0.0000000000
     40413      5366  TIP3      H1            -37.6586963653       22.3260963758       45.0027943960  TIP3      5166            0.0000000000
     40414      5366  TIP3      H2            -36.5384161606       21.3068072814       44.9743570722  TIP3      5166            0.0000000000
     40415      5367  TIP3      OH2           -33.1534892330       22.2135122630       43.0048004553  TIP3      5167            0.0000000000
     40416      5367  TIP3      H1            -32.1966085201       22.3249143070       43.1626292334  TIP3      5167            0.0000000000
     40417      5367  TIP3      H2            -33.3897599068       22.8962132026       42.3477914483  TIP3      5167            0.0000000000
     40418      5368  TIP3      OH2           -27.1938016228       19.8016858028       49.5959516934  TIP3      5168            0.0000000000
     40419      5368  TIP3      H1            -27.7929643990       19.8969816585       50.3547290257  TIP3      5168            0.0000000000
     40420      5368  TIP3      H2            -27.8066170992       19.5774204139       48.8986920747  TIP3      5168            0.0000000000
     40421      5369  TIP3      OH2           -34.4488672151       23.3895190981       40.5849608697  TIP3      5169            0.0000000000
     40422      5369  TIP3      H1            -34.9768255922       23.0121487359       39.8605599513  TIP3      5169            0.0000000000
     40423      5369  TIP3      H2            -33.6259968261       23.5986872755       40.1161688962  TIP3      5169            0.0000000000
     40424      5370  TIP3      OH2           -30.3636572148       23.3288502169       48.3952458765  TIP3      5170            0.0000000000
     40425      5370  TIP3      H1            -29.7265736808       22.8461206279       47.8416546411  TIP3      5170            0.0000000000
     40426      5370  TIP3      H2            -30.4213038977       22.7803875213       49.1850638425  TIP3      5170            0.0000000000
     40427      5371  TIP3      OH2           -35.3013859734       19.5190454675       44.8464960330  TIP3      5171            0.0000000000
     40428      5371  TIP3      H1            -35.6361937973       18.6020103825       44.8267036858  TIP3      5171            0.0000000000
     40429      5371  TIP3      H2            -34.5293371082       19.4376180656       44.2735285619  TIP3      5171            0.0000000000
     40430      5372  TIP3      OH2           -31.0958214160       27.9190450213       42.5140692022  TIP3      5172            0.0000000000
     40431      5372  TIP3      H1            -31.8961086477       27.4583092534       42.1754562580  TIP3      5172            0.0000000000
     40432      5372  TIP3      H2            -31.3239994730       28.0499287709       43.4562846746  TIP3      5172            0.0000000000
     40433      5373  TIP3      OH2           -27.2667242491       20.7353923580       40.6854774603  TIP3      5173            0.0000000000
     40434      5373  TIP3      H1            -28.2184413787       20.8904868178       40.5516573948  TIP3      5173            0.0000000000
     40435      5373  TIP3      H2            -26.9260487817       21.5861501457       41.0374221454  TIP3      5173            0.0000000000
     40436      5374  TIP3      OH2           -26.5288049799       22.6605036487       42.3082472304  TIP3      5174            0.0000000000
     40437      5374  TIP3      H1            -25.6479249322       22.5235824533       42.7166093908  TIP3      5174            0.0000000000
     40438      5374  TIP3      H2            -26.4198816140       23.4825912843       41.8014194392  TIP3      5174            0.0000000000
     40439      5375  TIP3      OH2           -36.0906552621       27.2683027536       48.2591271773  TIP3      5175            0.0000000000
     40440      5375  TIP3      H1            -35.3385131393       27.2622605628       47.6424525353  TIP3      5175            0.0000000000
     40441      5375  TIP3      H2            -35.9046478290       26.4499384972       48.7361011913  TIP3      5175            0.0000000000
     40442      5376  TIP3      OH2           -29.0015250710       29.3915080300       41.5392703582  TIP3      5176            0.0000000000
     40443      5376  TIP3      H1            -29.3424537742       30.2360354436       41.9007232729  TIP3      5176            0.0000000000
     40444      5376  TIP3      H2            -29.7280416704       28.7725029040       41.7679501266  TIP3      5176            0.0000000000
     40445      5377  TIP3      OH2           -21.6235282004       22.7865878862       42.0866467020  TIP3      5177            0.0000000000
     40446      5377  TIP3      H1            -22.1966104989       22.5085947007       41.3485826425  TIP3      5177            0.0000000000
     40447      5377  TIP3      H2            -21.5494768429       23.7388911593       41.8388059519  TIP3      5177            0.0000000000
     40448      5378  TIP3      OH2           -23.3759777264       31.6253517751       42.4814750576  TIP3      5178            0.0000000000
     40449      5378  TIP3      H1            -23.7032708785       30.7893448009       42.8321908464  TIP3      5178            0.0000000000
     40450      5378  TIP3      H2            -23.0184397705       31.4044449606       41.6056199734  TIP3      5178            0.0000000000
     40451      5379  TIP3      OH2           -26.4489517106       26.5102837388       48.8824511756  TIP3      5179            0.0000000000
     40452      5379  TIP3      H1            -27.2173915868       26.2968843463       49.4504739632  TIP3      5179            0.0000000000
     40453      5379  TIP3      H2            -25.9317565480       25.6791303454       48.8656987491  TIP3      5179            0.0000000000
     40454      5380  TIP3      OH2           -33.6221154418       30.7817566810       45.7345719812  TIP3      5180            0.0000000000
     40455      5380  TIP3      H1            -33.1165175715       31.5772402582       45.5021975697  TIP3      5180            0.0000000000
     40456      5380  TIP3      H2            -34.5002367518       31.0058490755       45.3932374828  TIP3      5180            0.0000000000
     40457      5381  TIP3      OH2           -37.9157196031       25.6245861457       40.2644360315  TIP3      5181            0.0000000000
     40458      5381  TIP3      H1            -37.2776247539       26.2613243238       40.6506085685  TIP3      5181            0.0000000000
     40459      5381  TIP3      H2            -38.7554607742       25.9898631906       40.5607077964  TIP3      5181            0.0000000000
     40460      5382  TIP3      OH2           -32.2063168438       28.4519195963       45.1952700403  TIP3      5182            0.0000000000
     40461      5382  TIP3      H1            -32.5161882069       29.3655114148       45.3182737356  TIP3      5182            0.0000000000
     40462      5382  TIP3      H2            -32.9198851964       27.9533854877       45.6354792315  TIP3      5182            0.0000000000
     40463      5383  TIP3      OH2           -33.5006928776       33.4403698783       44.7293587589  TIP3      5183            0.0000000000
     40464      5383  TIP3      H1            -34.4683095030       33.5536385544       44.8768670359  TIP3      5183            0.0000000000
     40465      5383  TIP3      H2            -33.1529134064       34.2728841667       45.1012053958  TIP3      5183            0.0000000000
     40466      5384  TIP3      OH2           -25.8816734418       29.6975789901       40.3324612229  TIP3      5184            0.0000000000
     40467      5384  TIP3      H1            -25.5884188807       29.2220399027       41.1354609687  TIP3      5184            0.0000000000
     40468      5384  TIP3      H2            -26.8354747043       29.5124528656       40.4115219464  TIP3      5184            0.0000000000
     40469      5385  TIP3      OH2           -21.4373090886       34.0482372795       40.5868825103  TIP3      5185            0.0000000000
     40470      5385  TIP3      H1            -20.7368712551       34.6933441266       40.3720786444  TIP3      5185            0.0000000000
     40471      5385  TIP3      H2            -22.1559421964       34.6640826010       40.8711264933  TIP3      5185            0.0000000000
     40472      5386  TIP3      OH2           -25.1097267109       28.3268807456       42.5779603534  TIP3      5186            0.0000000000
     40473      5386  TIP3      H1            -25.3478230810       27.5441298191       43.1251053198  TIP3      5186            0.0000000000
     40474      5386  TIP3      H2            -24.1564169292       28.3712932752       42.7512919436  TIP3      5186            0.0000000000
     40475      5387  TIP3      OH2           -31.7725413766       30.7707556965       38.8268937379  TIP3      5187            0.0000000000
     40476      5387  TIP3      H1            -31.6573997170       30.0035173311       38.2413492976  TIP3      5187            0.0000000000
     40477      5387  TIP3      H2            -32.2018730444       30.3343325422       39.5951589587  TIP3      5187            0.0000000000
     40478      5388  TIP3      OH2           -32.9946074833       30.2904603429       41.2702264401  TIP3      5188            0.0000000000
     40479      5388  TIP3      H1            -32.7362511379       29.7778195021       42.0444294171  TIP3      5188            0.0000000000
     40480      5388  TIP3      H2            -32.9157033944       31.2163543061       41.5956274233  TIP3      5188            0.0000000000
     40481      5389  TIP3      OH2           -36.4835402525       27.5284693695       41.7265428180  TIP3      5189            0.0000000000
     40482      5389  TIP3      H1            -37.1700478582       27.9185399322       42.3162614454  TIP3      5189            0.0000000000
     40483      5389  TIP3      H2            -35.9474690949       28.3104508206       41.4855613383  TIP3      5189            0.0000000000
     40484      5390  TIP3      OH2           -27.8719971602       19.7938061878       43.1709335305  TIP3      5190            0.0000000000
     40485      5390  TIP3      H1            -27.6399267925       20.2572718958       42.3439747604  TIP3      5190            0.0000000000
     40486      5390  TIP3      H2            -27.2944224068       20.2390956807       43.8049555683  TIP3      5190            0.0000000000
     40487      5391  TIP3      OH2           -30.1850275920       31.9526928208       41.9698677708  TIP3      5191            0.0000000000
     40488      5391  TIP3      H1            -30.9986644394       32.4888918998       42.0468646588  TIP3      5191            0.0000000000
     40489      5391  TIP3      H2            -29.6415409569       32.5069762310       41.3900170776  TIP3      5191            0.0000000000
     40490      5392  TIP3      OH2           -30.6352473120       21.5461361602       43.9806058944  TIP3      5192            0.0000000000
     40491      5392  TIP3      H1            -29.8574727610       22.1347061359       44.0379995146  TIP3      5192            0.0000000000
     40492      5392  TIP3      H2            -30.9072035285       21.4120540580       44.9073702977  TIP3      5192            0.0000000000
     40493      5393  TIP3      OH2           -29.7836144662       18.6091258091       44.8693482446  TIP3      5193            0.0000000000
     40494      5393  TIP3      H1            -30.1065796728       19.2525838541       45.5270212973  TIP3      5193            0.0000000000
     40495      5393  TIP3      H2            -29.0903222526       19.1571797717       44.4291747530  TIP3      5193            0.0000000000
     40496      5394  TIP3      OH2           -32.7854017306       32.9901293897       42.0002098844  TIP3      5194            0.0000000000
     40497      5394  TIP3      H1            -32.6861711731       33.8079530591       41.4513696366  TIP3      5194            0.0000000000
     40498      5394  TIP3      H2            -33.0433227783       33.3572497187       42.8746629204  TIP3      5194            0.0000000000
     40499      5395  TIP3      OH2           -34.1231241052       19.7097753248       41.5839041763  TIP3      5195            0.0000000000
     40500      5395  TIP3      H1            -34.1793119907       20.6087626941       41.9672462069  TIP3      5195            0.0000000000
     40501      5395  TIP3      H2            -33.2148457550       19.4686947161       41.8483291430  TIP3      5195            0.0000000000
     40502      5396  TIP3      OH2           -25.3316231575       24.2840824883       47.9622028235  TIP3      5196            0.0000000000
     40503      5396  TIP3      H1            -26.1456012096       23.7956142155       47.7566829179  TIP3      5196            0.0000000000
     40504      5396  TIP3      H2            -24.8345831075       23.5957916303       48.4664198970  TIP3      5196            0.0000000000
     40505      5397  TIP3      OH2           -35.8348991154       30.1616423392       40.6354213067  TIP3      5197            0.0000000000
     40506      5397  TIP3      H1            -35.1796025399       30.7991578354       40.9336138695  TIP3      5197            0.0000000000
     40507      5397  TIP3      H2            -35.3271005004       29.6969946502       39.9401814705  TIP3      5197            0.0000000000
     40508      5398  TIP3      OH2           -37.5532177571       22.8288952537       39.7916545372  TIP3      5198            0.0000000000
     40509      5398  TIP3      H1            -37.5398585667       23.7868186701       39.9718629751  TIP3      5198            0.0000000000
     40510      5398  TIP3      H2            -38.4398650616       22.6676319339       39.4610326035  TIP3      5198            0.0000000000
     40511      5399  TIP3      OH2           -23.9617286699       33.7856535673       49.6277977191  TIP3      5199            0.0000000000
     40512      5399  TIP3      H1            -24.1131399750       34.3718463057       48.8523824230  TIP3      5199            0.0000000000
     40513      5399  TIP3      H2            -23.0132790694       33.7229189678       49.7457956345  TIP3      5199            0.0000000000
     40514      5400  TIP3      OH2           -36.7296798177       17.5792134404       48.4582809601  TIP3      5200            0.0000000000
     40515      5400  TIP3      H1            -36.9625647221       17.6155412717       47.5097085076  TIP3      5200            0.0000000000
     40516      5400  TIP3      H2            -37.1653209915       16.7579894146       48.7497890451  TIP3      5200            0.0000000000
     40517      5401  TIP3      OH2           -37.7619084182       31.5299651687       44.6775734299  TIP3      5201            0.0000000000
     40518      5401  TIP3      H1            -38.6141287808       31.9821234652       44.6324864663  TIP3      5201            0.0000000000
     40519      5401  TIP3      H2            -37.2736358880       32.0053895894       43.9920920970  TIP3      5201            0.0000000000
     40520      5402  TIP3      OH2           -29.7620266432       32.6168501020       38.9496076685  TIP3      5202            0.0000000000
     40521      5402  TIP3      H1            -30.4546284283       31.9585451117       39.1781783389  TIP3      5202            0.0000000000
     40522      5402  TIP3      H2            -29.0435242914       32.0176507168       38.7035783363  TIP3      5202            0.0000000000
     40523      5403  TIP3      OH2           -25.2088745789       32.3377529794       39.1423404551  TIP3      5203            0.0000000000
     40524      5403  TIP3      H1            -24.8953994470       31.5683720564       39.6429698701  TIP3      5203            0.0000000000
     40525      5403  TIP3      H2            -24.4547041934       32.6018311346       38.5945505408  TIP3      5203            0.0000000000
     40526      5404  TIP3      OH2           -34.3274208882       28.3000803972       38.9555132329  TIP3      5204            0.0000000000
     40527      5404  TIP3      H1            -34.1775390348       27.5440661689       39.5460474507  TIP3      5204            0.0000000000
     40528      5404  TIP3      H2            -33.5748906990       28.1886932616       38.3411588980  TIP3      5204            0.0000000000
     40529      5405  TIP3      OH2           -28.8872100291       29.4120946465       38.7333057430  TIP3      5205            0.0000000000
     40530      5405  TIP3      H1            -29.1571494539       29.4916515279       39.6619107495  TIP3      5205            0.0000000000
     40531      5405  TIP3      H2            -29.0752204113       28.4543058568       38.5881317686  TIP3      5205            0.0000000000
     40532      5406  TIP3      OH2           -33.1201959224       26.3225748795       41.3804606892  TIP3      5206            0.0000000000
     40533      5406  TIP3      H1            -33.6123655346       25.7769843242       42.0115137861  TIP3      5206            0.0000000000
     40534      5406  TIP3      H2            -32.8147363238       25.6488641849       40.7289549718  TIP3      5206            0.0000000000
     40535      5407  TIP3      OH2           -32.0511959539       24.5485087894       39.5850020539  TIP3      5207            0.0000000000
     40536      5407  TIP3      H1            -32.1952322196       24.4560008414       38.6227297322  TIP3      5207            0.0000000000
     40537      5407  TIP3      H2            -31.0723694473       24.5945472253       39.6514761317  TIP3      5207            0.0000000000
     40538      5408  TIP3      OH2           -22.7075552334       26.8607924691       38.9939098296  TIP3      5208            0.0000000000
     40539      5408  TIP3      H1            -22.9062539149       26.4787426608       38.1262386231  TIP3      5208            0.0000000000
     40540      5408  TIP3      H2            -22.6239413793       27.8251349194       38.8081167746  TIP3      5208            0.0000000000
     40541      5409  TIP3      OH2           -32.2118785953       35.2467420096       40.6577991324  TIP3      5209            0.0000000000
     40542      5409  TIP3      H1            -31.2444487261       35.3309080582       40.7292586426  TIP3      5209            0.0000000000
     40543      5409  TIP3      H2            -32.3563413394       35.8567340816       39.9220888697  TIP3      5209            0.0000000000
     40544      5410  TIP3      OH2           -38.2532793685       29.9390750681       39.8329826347  TIP3      5210            0.0000000000
     40545      5410  TIP3      H1            -37.3742327716       29.8618503677       40.2730449531  TIP3      5210            0.0000000000
     40546      5410  TIP3      H2            -38.3569151750       29.0933909978       39.3586099814  TIP3      5210            0.0000000000
     40547      5411  TIP3      OH2            40.2966740329       35.3842169433       44.8950436903  TIP3      5211            0.0000000000
     40548      5411  TIP3      H1             39.4855246739       34.9480636463       44.5730856040  TIP3      5211            0.0000000000
     40549      5411  TIP3      H2             40.3985186827       34.7507882719       45.6381876952  TIP3      5211            0.0000000000
     40550      5412  TIP3      OH2           -38.9950878911       33.3402878723       46.9892783138  TIP3      5212            0.0000000000
     40551      5412  TIP3      H1            -39.2688468098       32.4292368182       47.2030352866  TIP3      5212            0.0000000000
     40552      5412  TIP3      H2            -38.7136621208       33.6440875119       47.8899178475  TIP3      5212            0.0000000000
     40553      5413  TIP3      OH2           -22.1775354244       27.7860378942       42.9427043285  TIP3      5213            0.0000000000
     40554      5413  TIP3      H1            -21.3099492502       28.1712508422       43.1348884312  TIP3      5213            0.0000000000
     40555      5413  TIP3      H2            -22.1934572903       27.0608096442       43.6046644544  TIP3      5213            0.0000000000
     40556      5414  TIP3      OH2           -21.8307516076       25.8597141568       44.8170244744  TIP3      5214            0.0000000000
     40557      5414  TIP3      H1            -22.5688781977       25.3600249837       45.2272431841  TIP3      5214            0.0000000000
     40558      5414  TIP3      H2            -21.2149570757       25.9903494471       45.5728832390  TIP3      5214            0.0000000000
     40559      5415  TIP3      OH2           -21.9593200719       28.8073927923       49.6929614264  TIP3      5215            0.0000000000
     40560      5415  TIP3      H1            -21.1640391862       28.2922035900       49.4618536661  TIP3      5215            0.0000000000
     40561      5415  TIP3      H2            -21.7684384264       29.7470077537       49.5692124845  TIP3      5215            0.0000000000
     40562      5416  TIP3      OH2           -21.5142232528       25.6810273661       41.2273769327  TIP3      5216            0.0000000000
     40563      5416  TIP3      H1            -22.0836897428       26.0203767678       40.5048677804  TIP3      5216            0.0000000000
     40564      5416  TIP3      H2            -21.6176395380       26.3942028550       41.8849904527  TIP3      5216            0.0000000000
     40565      5417  TIP3      OH2           -23.1383257965       22.9046981474       39.7366521733  TIP3      5217            0.0000000000
     40566      5417  TIP3      H1            -23.0655065715       23.5723105386       39.0445386503  TIP3      5217            0.0000000000
     40567      5417  TIP3      H2            -23.3285036291       22.0837126753       39.2435218382  TIP3      5217            0.0000000000
     40568      5418  TIP3      OH2           -23.9942051780       24.3209561714       45.4337441428  TIP3      5218            0.0000000000
     40569      5418  TIP3      H1            -24.1393844973       23.3640126015       45.3815923455  TIP3      5218            0.0000000000
     40570      5418  TIP3      H2            -24.3415956050       24.5227075893       46.3228039278  TIP3      5218            0.0000000000
     40571      5419  TIP3      OH2           -38.8901751279       26.2109908554       49.4727718172  TIP3      5219            0.0000000000
     40572      5419  TIP3      H1            -38.6959558537       26.2708982600       48.5121444211  TIP3      5219            0.0000000000
     40573      5419  TIP3      H2            -38.0161393166       26.2266088499       49.8837596205  TIP3      5219            0.0000000000
     40574      5420  TIP3      OH2           -23.8901680681       20.3811055248       38.8778293073  TIP3      5220            0.0000000000
     40575      5420  TIP3      H1            -23.3049625565       19.9432380138       39.5198946797  TIP3      5220            0.0000000000
     40576      5420  TIP3      H2            -24.7570186220       19.9661578012       39.0293436175  TIP3      5220            0.0000000000
     40577      5421  TIP3      OH2           -24.3520223329       21.9094986505       43.8179377824  TIP3      5221            0.0000000000
     40578      5421  TIP3      H1            -24.0348581019       20.9919514831       43.9844153115  TIP3      5221            0.0000000000
     40579      5421  TIP3      H2            -23.5270550427       22.3187504427       43.5217657390  TIP3      5221            0.0000000000
     40580      5422  TIP3      OH2           -23.7238872521       22.5767361963       48.8706476670  TIP3      5222            0.0000000000
     40581      5422  TIP3      H1            -22.7631258552       22.6091197915       49.0673165963  TIP3      5222            0.0000000000
     40582      5422  TIP3      H2            -24.0912312439       22.5044794813       49.7783755588  TIP3      5222            0.0000000000
     40583      5423  TIP3      OH2           -23.6577334519       19.2002058674       43.9110149300  TIP3      5223            0.0000000000
     40584      5423  TIP3      H1            -23.4460404829       18.7678132536       44.7678786601  TIP3      5223            0.0000000000
     40585      5423  TIP3      H2            -24.2555752094       18.5606827365       43.4749063754  TIP3      5223            0.0000000000
     40586      5424  TIP3      OH2           -38.1536401479       20.0319970606       48.3884453232  TIP3      5224            0.0000000000
     40587      5424  TIP3      H1            -37.7525057755       19.1895974418       48.6935461677  TIP3      5224            0.0000000000
     40588      5424  TIP3      H2            -37.6210692165       20.6784040811       48.8824750940  TIP3      5224            0.0000000000
     40589      5425  TIP3      OH2           -39.8637943620       23.5640793336       49.4511255165  TIP3      5225            0.0000000000
     40590      5425  TIP3      H1            -39.3428855113       23.0877816135       48.7736249086  TIP3      5225            0.0000000000
     40591      5425  TIP3      H2            -39.2012143745       24.1264522240       49.8492817735  TIP3      5225            0.0000000000
     40592      5426  TIP3      OH2           -21.8414445572       19.2345147130       40.4637822450  TIP3      5226            0.0000000000
     40593      5426  TIP3      H1            -21.4298082058       18.5223125864       39.9270850048  TIP3      5226            0.0000000000
     40594      5426  TIP3      H2            -21.1349980821       19.8963420201       40.5122629659  TIP3      5226            0.0000000000
     40595      5427  TIP3      OH2           -39.4908725140       19.2817788576       43.4910874509  TIP3      5227            0.0000000000
     40596      5427  TIP3      H1            -40.4339719149       19.4513219048       43.4057142832  TIP3      5227            0.0000000000
     40597      5427  TIP3      H2            -39.0504507375       19.7962672261       42.7929424975  TIP3      5227            0.0000000000
     40598      5428  TIP3      OH2           -24.7849464563       34.2142839396       45.5290020571  TIP3      5228            0.0000000000
     40599      5428  TIP3      H1            -24.1071232451       33.9162966905       44.8913009773  TIP3      5228            0.0000000000
     40600      5428  TIP3      H2            -24.2728221654       34.7493067404       46.1556544448  TIP3      5228            0.0000000000
     40601      5429  TIP3      OH2           -37.7538399628       33.9674548158       49.0405420687  TIP3      5229            0.0000000000
     40602      5429  TIP3      H1            -37.6327595867       33.7481199403       49.9666242745  TIP3      5229            0.0000000000
     40603      5429  TIP3      H2            -36.8619737944       33.6919269950       48.7476028757  TIP3      5229            0.0000000000
     40604      5430  TIP3      OH2           -35.5034522368       32.7312641174       47.9147111072  TIP3      5230            0.0000000000
     40605      5430  TIP3      H1            -35.6392583027       31.7807673059       48.0879407316  TIP3      5230            0.0000000000
     40606      5430  TIP3      H2            -34.6331232971       32.8616196801       48.3440203993  TIP3      5230            0.0000000000
     40607      5431  TIP3      OH2           -32.9198948564       33.2215534550       48.7659972241  TIP3      5231            0.0000000000
     40608      5431  TIP3      H1            -32.7171120086       32.3122948525       48.4934747384  TIP3      5231            0.0000000000
     40609      5431  TIP3      H2            -32.8900785123       33.1287200436       49.7204770133  TIP3      5231            0.0000000000
     40610      5432  TIP3      OH2           -29.4194591863       18.9144177376       47.9012716778  TIP3      5232            0.0000000000
     40611      5432  TIP3      H1            -30.0641102791       18.2612393181       48.2367305492  TIP3      5232            0.0000000000
     40612      5432  TIP3      H2            -28.8495230305       18.3318098456       47.3833877413  TIP3      5232            0.0000000000
     40613      5433  TIP3      OH2           -24.2731016520       16.9545754060       47.9861178897  TIP3      5233            0.0000000000
     40614      5433  TIP3      H1            -23.6794310556       17.5416879983       47.4675642749  TIP3      5233            0.0000000000
     40615      5433  TIP3      H2            -25.1674026113       17.3019250940       47.7916211481  TIP3      5233            0.0000000000
     40616      5434  TIP3      OH2           -22.5991722442       18.1688301393       46.2661975541  TIP3      5234            0.0000000000
     40617      5434  TIP3      H1            -21.9247823602       17.5884619535       45.8407605107  TIP3      5234            0.0000000000
     40618      5434  TIP3      H2            -22.0983713914       19.0100341346       46.3535442011  TIP3      5234            0.0000000000
     40619      5435  TIP3      OH2           -37.0439285309       17.5022237770       45.7187594287  TIP3      5235            0.0000000000
     40620      5435  TIP3      H1            -37.8397880279       17.2777645184       45.2006589161  TIP3      5235            0.0000000000
     40621      5435  TIP3      H2            -36.5892356067       16.6355005509       45.7357220077  TIP3      5235            0.0000000000
     40622      5436  TIP3      OH2           -38.3277249271       17.2143089264       41.4671848069  TIP3      5236            0.0000000000
     40623      5436  TIP3      H1            -37.7868085338       17.8512786505       40.9569079225  TIP3      5236            0.0000000000
     40624      5436  TIP3      H2            -38.8280682241       17.8032890459       42.0556648343  TIP3      5236            0.0000000000
     40625      5437  TIP3      OH2           -32.5764255425       17.3821494913       45.5582819889  TIP3      5237            0.0000000000
     40626      5437  TIP3      H1            -31.6884062642       17.7698120463       45.4717031156  TIP3      5237            0.0000000000
     40627      5437  TIP3      H2            -32.6093403900       17.1808802185       46.4944087155  TIP3      5237            0.0000000000
     40628      5438  TIP3      OH2           -26.8528598531       17.4434414919       47.1553739804  TIP3      5238            0.0000000000
     40629      5438  TIP3      H1            -26.9098610595       17.5487846086       46.2046876406  TIP3      5238            0.0000000000
     40630      5438  TIP3      H2            -27.2589416415       16.5579619654       47.3152444704  TIP3      5238            0.0000000000
     40631      5439  TIP3      OH2           -25.5974967945       17.4563104881       42.8630806128  TIP3      5239            0.0000000000
     40632      5439  TIP3      H1            -26.3469573260       18.0501675997       42.7063297932  TIP3      5239            0.0000000000
     40633      5439  TIP3      H2            -26.0368252330       16.6046329736       43.0990639710  TIP3      5239            0.0000000000
     40634      5440  TIP3      OH2           -38.3790366843       33.1712492420       42.4866648418  TIP3      5240            0.0000000000
     40635      5440  TIP3      H1            -39.0430192981       33.1879609247       41.7942696962  TIP3      5240            0.0000000000
     40636      5440  TIP3      H2            -38.3487740378       34.1143106238       42.6980881932  TIP3      5240            0.0000000000
     40637      5441  TIP3      OH2           -36.4571949273       19.1694447321       39.9940254989  TIP3      5241            0.0000000000
     40638      5441  TIP3      H1            -35.9021528866       18.5617898862       39.4763515821  TIP3      5241            0.0000000000
     40639      5441  TIP3      H2            -35.7883876741       19.4895545562       40.6290385519  TIP3      5241            0.0000000000
     40640      5442  TIP3      OH2           -31.4282185003       19.4205852846       42.4064360440  TIP3      5242            0.0000000000
     40641      5442  TIP3      H1            -31.1701616267       18.8462651511       43.1468419455  TIP3      5242            0.0000000000
     40642      5442  TIP3      H2            -31.3546915954       20.2888205568       42.8612351366  TIP3      5242            0.0000000000
     40643      5443  TIP3      OH2           -29.4953379264       34.4927738942       40.8521946106  TIP3      5243            0.0000000000
     40644      5443  TIP3      H1            -28.5746853522       34.7148097795       40.6352014699  TIP3      5243            0.0000000000
     40645      5443  TIP3      H2            -29.7133557321       33.9735877622       40.0492788756  TIP3      5243            0.0000000000
     40646      5444  TIP3      OH2           -22.7897302816       33.9936965410       43.5742682118  TIP3      5244            0.0000000000
     40647      5444  TIP3      H1            -22.9903057118       33.2146048626       43.0031282201  TIP3      5244            0.0000000000
     40648      5444  TIP3      H2            -22.8602200414       34.7343653738       42.9346109206  TIP3      5244            0.0000000000
     40649      5445  TIP3      OH2           -36.5923181784       34.1550197389       39.4434915705  TIP3      5245            0.0000000000
     40650      5445  TIP3      H1            -36.8066724264       34.4199089266       40.3467688530  TIP3      5245            0.0000000000
     40651      5445  TIP3      H2            -35.7843949323       33.6225843462       39.5999035210  TIP3      5245            0.0000000000
     40652      5446  TIP3      OH2            -9.1111882661       26.6243544746       45.6296874399  TIP3      5246            0.0000000000
     40653      5446  TIP3      H1             -9.1045646744       27.6061851378       45.5885225733  TIP3      5246            0.0000000000
     40654      5446  TIP3      H2             -9.8363274934       26.3930278949       45.0261149791  TIP3      5246            0.0000000000
     40655      5447  TIP3      OH2           -10.2340665987       25.8769697202       49.1336882767  TIP3      5247            0.0000000000
     40656      5447  TIP3      H1            -10.3030967379       25.2327297270       49.8643386492  TIP3      5247            0.0000000000
     40657      5447  TIP3      H2            -10.5430612572       25.3947439897       48.3575495814  TIP3      5247            0.0000000000
     40658      5448  TIP3      OH2            -6.6576245056       28.7871159905       47.3504200257  TIP3      5248            0.0000000000
     40659      5448  TIP3      H1             -6.9965535800       28.0680323526       47.9112377520  TIP3      5248            0.0000000000
     40660      5448  TIP3      H2             -6.5173832063       29.4744193237       48.0585496855  TIP3      5248            0.0000000000
     40661      5449  TIP3      OH2           -16.9796884331       30.0703870339       49.0553570365  TIP3      5249            0.0000000000
     40662      5449  TIP3      H1            -17.2835341671       29.1603030131       48.8664709579  TIP3      5249            0.0000000000
     40663      5449  TIP3      H2            -16.0356131027       29.8431076132       49.2189121669  TIP3      5249            0.0000000000
     40664      5450  TIP3      OH2           -20.3298791026       23.5485874824       44.6769006553  TIP3      5250            0.0000000000
     40665      5450  TIP3      H1            -20.7557493497       24.4236361385       44.6021804763  TIP3      5250            0.0000000000
     40666      5450  TIP3      H2            -20.8986783811       23.0149996299       44.1030020087  TIP3      5250            0.0000000000
     40667      5451  TIP3      OH2           -19.6451119036       25.7677476886       46.7703286715  TIP3      5251            0.0000000000
     40668      5451  TIP3      H1            -19.3693127052       24.9775420442       47.2665775990  TIP3      5251            0.0000000000
     40669      5451  TIP3      H2            -18.9077704891       25.8852151257       46.1570545646  TIP3      5251            0.0000000000
     40670      5452  TIP3      OH2            -9.4567539728       33.9832259725       47.6843842753  TIP3      5252            0.0000000000
     40671      5452  TIP3      H1             -8.7995500826       33.3174427586       47.3628274856  TIP3      5252            0.0000000000
     40672      5452  TIP3      H2             -9.6365684888       33.6499004872       48.5639728926  TIP3      5252            0.0000000000
     40673      5453  TIP3      OH2           -11.8212848094       28.3374127429       49.5636101481  TIP3      5253            0.0000000000
     40674      5453  TIP3      H1            -11.4844909568       27.6448002787       48.9724442464  TIP3      5253            0.0000000000
     40675      5453  TIP3      H2            -11.0674369526       28.4049893023       50.1575604328  TIP3      5253            0.0000000000
     40676      5454  TIP3      OH2            -8.6656321622       22.7442042464       49.8908271358  TIP3      5254            0.0000000000
     40677      5454  TIP3      H1             -8.5503426017       21.7800304209       49.9033821930  TIP3      5254            0.0000000000
     40678      5454  TIP3      H2             -8.7866657067       22.8910881805       48.9282178482  TIP3      5254            0.0000000000
     40679      5455  TIP3      OH2           -15.5706721888       20.8248754417       47.1111475008  TIP3      5255            0.0000000000
     40680      5455  TIP3      H1            -15.4876414408       21.6701546728       46.6368649237  TIP3      5255            0.0000000000
     40681      5455  TIP3      H2            -15.9990135355       20.2526279591       46.4384071737  TIP3      5255            0.0000000000
     40682      5456  TIP3      OH2            -7.8738086807       20.9244885911       45.4756565042  TIP3      5256            0.0000000000
     40683      5456  TIP3      H1             -7.2363458964       20.5988534139       46.1575478360  TIP3      5256            0.0000000000
     40684      5456  TIP3      H2             -7.2857609331       21.4979372946       44.9658105917  TIP3      5256            0.0000000000
     40685      5457  TIP3      OH2           -18.9837441917       23.2055333788       47.8584216258  TIP3      5257            0.0000000000
     40686      5457  TIP3      H1            -18.3017464971       22.6808456291       48.3242040507  TIP3      5257            0.0000000000
     40687      5457  TIP3      H2            -18.8376058984       22.9145542423       46.9395502655  TIP3      5257            0.0000000000
     40688      5458  TIP3      OH2           -13.8039974985       24.7807341380       47.1622545706  TIP3      5258            0.0000000000
     40689      5458  TIP3      H1            -13.1333647196       24.1984010954       47.5630442325  TIP3      5258            0.0000000000
     40690      5458  TIP3      H2            -14.3297114031       24.1367287932       46.6448937429  TIP3      5258            0.0000000000
     40691      5459  TIP3      OH2            -9.3761573445       29.2295317671       44.7233903799  TIP3      5259            0.0000000000
     40692      5459  TIP3      H1             -9.6699877325       28.9234454518       43.8562580400  TIP3      5259            0.0000000000
     40693      5459  TIP3      H2             -9.7156432147       30.1495769327       44.7933725935  TIP3      5259            0.0000000000
     40694      5460  TIP3      OH2            -6.1059136552       20.2558852916       47.4645616341  TIP3      5260            0.0000000000
     40695      5460  TIP3      H1             -6.2779556371       19.5091405471       48.0531656358  TIP3      5260            0.0000000000
     40696      5460  TIP3      H2             -5.4191235626       20.6957645274       48.0023039643  TIP3      5260            0.0000000000
     40697      5461  TIP3      OH2           -17.1135004558       21.5946642098       49.1292641082  TIP3      5261            0.0000000000
     40698      5461  TIP3      H1            -16.5473350864       22.2875739787       49.4671542953  TIP3      5261            0.0000000000
     40699      5461  TIP3      H2            -16.5884614422       21.1689991257       48.4212012213  TIP3      5261            0.0000000000
     40700      5462  TIP3      OH2           -19.6438225989       28.9908204022       43.0181344570  TIP3      5262            0.0000000000
     40701      5462  TIP3      H1            -19.8961475101       29.3315094750       42.1417233285  TIP3      5262            0.0000000000
     40702      5462  TIP3      H2            -19.5655917312       29.8176899149       43.5351701004  TIP3      5262            0.0000000000
     40703      5463  TIP3      OH2            -5.9843413957       30.3724020365       49.2808968873  TIP3      5263            0.0000000000
     40704      5463  TIP3      H1             -6.7729169095       30.4928621652       49.8528359084  TIP3      5263            0.0000000000
     40705      5463  TIP3      H2             -5.6219229042       31.2463562267       49.4629490300  TIP3      5263            0.0000000000
     40706      5464  TIP3      OH2           -12.7168868827       17.1017913728       48.6002717295  TIP3      5264            0.0000000000
     40707      5464  TIP3      H1            -12.8106011553       16.1316019970       48.5599187701  TIP3      5264            0.0000000000
     40708      5464  TIP3      H2            -13.6071481200       17.3863172995       48.8947265975  TIP3      5264            0.0000000000
     40709      5465  TIP3      OH2            -7.8201523091       32.4628957675       46.3259279671  TIP3      5265            0.0000000000
     40710      5465  TIP3      H1             -7.3495918885       31.7380211318       45.8626469412  TIP3      5265            0.0000000000
     40711      5465  TIP3      H2             -7.3397610827       33.2618903566       46.0200425608  TIP3      5265            0.0000000000
     40712      5466  TIP3      OH2            -6.5713419593       30.4053980214       44.8936178642  TIP3      5266            0.0000000000
     40713      5466  TIP3      H1             -6.8621766314       29.6674041368       44.3348574901  TIP3      5266            0.0000000000
     40714      5466  TIP3      H2             -6.5238321706       29.9216570858       45.7462496156  TIP3      5266            0.0000000000
     40715      5467  TIP3      OH2           -10.4535004296       25.8488619996       43.1414180080  TIP3      5267            0.0000000000
     40716      5467  TIP3      H1            -11.1445485241       26.4326521988       42.7811389148  TIP3      5267            0.0000000000
     40717      5467  TIP3      H2             -9.7415774887       25.9589311043       42.4779313862  TIP3      5267            0.0000000000
     40718      5468  TIP3      OH2           -10.3685489325       24.4300544366       40.1492666548  TIP3      5268            0.0000000000
     40719      5468  TIP3      H1             -9.6651848597       24.4119551362       40.8157764657  TIP3      5268            0.0000000000
     40720      5468  TIP3      H2            -10.0631639599       23.7106659861       39.5821560219  TIP3      5268            0.0000000000
     40721      5469  TIP3      OH2            -6.9966317080       26.0677344583       44.0530753592  TIP3      5269            0.0000000000
     40722      5469  TIP3      H1             -7.7455979696       26.3114373206       44.6476884716  TIP3      5269            0.0000000000
     40723      5469  TIP3      H2             -6.5322271490       25.3888093491       44.5714740239  TIP3      5269            0.0000000000
     40724      5470  TIP3      OH2           -15.4063385496       26.7221707649       45.9829673269  TIP3      5270            0.0000000000
     40725      5470  TIP3      H1            -15.7275784358       26.3420462325       45.1329353342  TIP3      5270            0.0000000000
     40726      5470  TIP3      H2            -14.7619836372       26.0437714474       46.2743726106  TIP3      5270            0.0000000000
     40727      5471  TIP3      OH2           -13.9961993244       30.1801383380       48.6237141522  TIP3      5271            0.0000000000
     40728      5471  TIP3      H1            -14.0710563142       29.6021466534       47.8507960902  TIP3      5271            0.0000000000
     40729      5471  TIP3      H2            -13.2849074613       29.7484501681       49.1273878067  TIP3      5271            0.0000000000
     40730      5472  TIP3      OH2           -15.1716733942       25.5593844974       49.4847122710  TIP3      5272            0.0000000000
     40731      5472  TIP3      H1            -14.5304330377       25.6278173485       48.7628836847  TIP3      5272            0.0000000000
     40732      5472  TIP3      H2            -14.7138487719       26.0188250191       50.2085440423  TIP3      5272            0.0000000000
     40733      5473  TIP3      OH2            -8.1205667186       25.2768210321       41.7262611669  TIP3      5273            0.0000000000
     40734      5473  TIP3      H1             -7.5713840756       25.4625272309       42.5292315134  TIP3      5273            0.0000000000
     40735      5473  TIP3      H2             -7.6722175972       25.7724603274       41.0053652071  TIP3      5273            0.0000000000
     40736      5474  TIP3      OH2           -10.3822021240       31.9984397566       45.1515335542  TIP3      5274            0.0000000000
     40737      5474  TIP3      H1             -9.9986878471       32.2896995947       45.9912704323  TIP3      5274            0.0000000000
     40738      5474  TIP3      H2            -10.9856730493       32.7283933391       44.9560194365  TIP3      5274            0.0000000000
     40739      5475  TIP3      OH2            -4.2073875497       17.0929024904       41.7470839387  TIP3      5275            0.0000000000
     40740      5475  TIP3      H1             -5.0492502429       17.3036637659       42.2054768422  TIP3      5275            0.0000000000
     40741      5475  TIP3      H2             -4.0072096758       17.9382539389       41.2774030842  TIP3      5275            0.0000000000
     40742      5476  TIP3      OH2           -16.4343631272       25.7502449322       43.6200194517  TIP3      5276            0.0000000000
     40743      5476  TIP3      H1            -16.7089847618       26.5310427826       43.0929086977  TIP3      5276            0.0000000000
     40744      5476  TIP3      H2            -17.0734787907       25.0814322285       43.3600893364  TIP3      5276            0.0000000000
     40745      5477  TIP3      OH2            -3.2975835834       31.3572126028       40.0069262096  TIP3      5277            0.0000000000
     40746      5477  TIP3      H1             -3.0961626726       32.3021820305       40.1428433063  TIP3      5277            0.0000000000
     40747      5477  TIP3      H2             -2.3738202721       31.0338337640       39.9733711961  TIP3      5277            0.0000000000
     40748      5478  TIP3      OH2           -20.5009220752       31.0933412619       49.0707744372  TIP3      5278            0.0000000000
     40749      5478  TIP3      H1            -19.5998338074       30.8049288987       49.2619656171  TIP3      5278            0.0000000000
     40750      5478  TIP3      H2            -20.6795867016       31.7576343008       49.7409541294  TIP3      5278            0.0000000000
     40751      5479  TIP3      OH2           -10.9131856262       34.8938887764       43.5971231972  TIP3      5279            0.0000000000
     40752      5479  TIP3      H1            -11.0749931882       34.8342069022       42.6420989425  TIP3      5279            0.0000000000
     40753      5479  TIP3      H2            -10.9511440015       35.8525751667       43.7726961404  TIP3      5279            0.0000000000
     40754      5480  TIP3      OH2           -17.2753605118       33.7647807763       45.4123016084  TIP3      5280            0.0000000000
     40755      5480  TIP3      H1            -17.1361324040       33.3658131742       46.2984655420  TIP3      5280            0.0000000000
     40756      5480  TIP3      H2            -18.1396869115       33.3775575360       45.1953469530  TIP3      5280            0.0000000000
     40757      5481  TIP3      OH2            -7.9242856980       34.1666729109       40.5721697767  TIP3      5281            0.0000000000
     40758      5481  TIP3      H1             -7.3886037531       33.5360068733       40.0692903349  TIP3      5281            0.0000000000
     40759      5481  TIP3      H2             -7.8491694649       33.9830652923       41.5457746544  TIP3      5281            0.0000000000
     40760      5482  TIP3      OH2            -8.1778939818       33.9700686260       43.2829399421  TIP3      5282            0.0000000000
     40761      5482  TIP3      H1             -9.1056382233       34.1599914448       43.5590471558  TIP3      5282            0.0000000000
     40762      5482  TIP3      H2             -7.9448819690       33.3401469602       43.9886057703  TIP3      5282            0.0000000000
     40763      5483  TIP3      OH2           -15.3882050466       17.9507626397       49.4205968255  TIP3      5283            0.0000000000
     40764      5483  TIP3      H1            -16.2558626691       17.8427604605       48.9655414228  TIP3      5283            0.0000000000
     40765      5483  TIP3      H2            -15.4590359889       18.8173453262       49.8274600252  TIP3      5283            0.0000000000
     40766      5484  TIP3      OH2            -6.6980000154       26.3629979793       39.5404162501  TIP3      5284            0.0000000000
     40767      5484  TIP3      H1             -6.7039898718       26.1199707862       38.5854033017  TIP3      5284            0.0000000000
     40768      5484  TIP3      H2             -5.8016796966       26.7296480357       39.5886068433  TIP3      5284            0.0000000000
     40769      5485  TIP3      OH2           -11.0814454009       20.2278052770       40.0527179779  TIP3      5285            0.0000000000
     40770      5485  TIP3      H1            -11.3950127916       20.1626292920       40.9733288142  TIP3      5285            0.0000000000
     40771      5485  TIP3      H2            -11.3875453740       19.3492826884       39.7479625305  TIP3      5285            0.0000000000
     40772      5486  TIP3      OH2           -15.3097178734       23.0707164544       45.4729898305  TIP3      5286            0.0000000000
     40773      5486  TIP3      H1            -16.2450804078       22.8011404758       45.3612187920  TIP3      5286            0.0000000000
     40774      5486  TIP3      H2            -14.9340181091       22.7725601627       44.6201631370  TIP3      5286            0.0000000000
     40775      5487  TIP3      OH2            -9.7869287165       23.5637089868       44.2628756777  TIP3      5287            0.0000000000
     40776      5487  TIP3      H1            -10.1735820574       24.3979911754       43.9144374856  TIP3      5287            0.0000000000
     40777      5487  TIP3      H2             -9.0937485646       23.3985591111       43.6039763557  TIP3      5287            0.0000000000
     40778      5488  TIP3      OH2            -8.7707893831       23.0397878625       47.1210378056  TIP3      5288            0.0000000000
     40779      5488  TIP3      H1             -9.0067681715       23.6204357793       46.3741277737  TIP3      5288            0.0000000000
     40780      5488  TIP3      H2             -8.6369857954       22.2058425771       46.6213344608  TIP3      5288            0.0000000000
     40781      5489  TIP3      OH2           -14.2709369348       20.5920516105       39.1716210658  TIP3      5289            0.0000000000
     40782      5489  TIP3      H1            -14.7254783213       20.1709632049       39.9293512163  TIP3      5289            0.0000000000
     40783      5489  TIP3      H2            -14.9804311885       21.0238944813       38.6802064242  TIP3      5289            0.0000000000
     40784      5490  TIP3      OH2           -20.9888617530       20.3394401176       46.2602734190  TIP3      5290            0.0000000000
     40785      5490  TIP3      H1            -20.3229333751       20.2896560055       46.9778938251  TIP3      5290            0.0000000000
     40786      5490  TIP3      H2            -20.5387325857       19.9138459646       45.5085423697  TIP3      5290            0.0000000000
     40787      5491  TIP3      OH2           -19.7160872887       21.0181639507       41.6492809071  TIP3      5291            0.0000000000
     40788      5491  TIP3      H1            -19.2071152993       21.6334735564       41.0902105500  TIP3      5291            0.0000000000
     40789      5491  TIP3      H2            -20.3997023838       21.6356569809       41.9842717367  TIP3      5291            0.0000000000
     40790      5492  TIP3      OH2           -12.7468829605       20.6669282508       46.5173046527  TIP3      5292            0.0000000000
     40791      5492  TIP3      H1            -13.6806657191       20.6165223969       46.8072091314  TIP3      5292            0.0000000000
     40792      5492  TIP3      H2            -12.2500018475       20.4471990710       47.3184614847  TIP3      5292            0.0000000000
     40793      5493  TIP3      OH2           -17.9187421779       22.1746152872       45.3535522134  TIP3      5293            0.0000000000
     40794      5493  TIP3      H1            -18.8173178195       22.3206361363       44.9928426985  TIP3      5293            0.0000000000
     40795      5493  TIP3      H2            -17.6569095616       21.3255917760       44.9635558980  TIP3      5293            0.0000000000
     40796      5494  TIP3      OH2           -14.2981256841       22.2145950524       43.0067359769  TIP3      5294            0.0000000000
     40797      5494  TIP3      H1            -13.3410063984       22.3248909824       43.1627153922  TIP3      5294            0.0000000000
     40798      5494  TIP3      H2            -14.5335210642       22.8959017664       42.3477810273  TIP3      5294            0.0000000000
     40799      5495  TIP3      OH2            -8.3376237415       19.8009813340       49.5957501422  TIP3      5295            0.0000000000
     40800      5495  TIP3      H1             -8.9366286007       19.8969172177       50.3544200394  TIP3      5295            0.0000000000
     40801      5495  TIP3      H2             -8.9529227438       19.5779230416       48.8999623488  TIP3      5295            0.0000000000
     40802      5496  TIP3      OH2           -15.5894889208       23.3902665603       40.5903464577  TIP3      5296            0.0000000000
     40803      5496  TIP3      H1            -16.1215284156       23.0082730148       39.8713198018  TIP3      5296            0.0000000000
     40804      5496  TIP3      H2            -14.7693904166       23.5987194225       40.1164990326  TIP3      5296            0.0000000000
     40805      5497  TIP3      OH2           -11.5075306435       23.3291528770       48.3957605902  TIP3      5297            0.0000000000
     40806      5497  TIP3      H1            -10.8719297644       22.8449329733       47.8420190622  TIP3      5297            0.0000000000
     40807      5497  TIP3      H2            -11.5658309391       22.7803289045       49.1851613836  TIP3      5297            0.0000000000
     40808      5498  TIP3      OH2           -16.4460533563       19.5117781274       44.8456816478  TIP3      5298            0.0000000000
     40809      5498  TIP3      H1            -16.7727891225       18.5924969805       44.8167971109  TIP3      5298            0.0000000000
     40810      5498  TIP3      H2            -15.6703659729       19.4472646218       44.2747489239  TIP3      5298            0.0000000000
     40811      5499  TIP3      OH2           -12.2389303052       27.9209588987       42.5127100531  TIP3      5299            0.0000000000
     40812      5499  TIP3      H1            -13.0391515755       27.4589097985       42.1749550127  TIP3      5299            0.0000000000
     40813      5499  TIP3      H2            -12.4677798445       28.0496669499       43.4551164091  TIP3      5299            0.0000000000
     40814      5500  TIP3      OH2            -8.4127802931       20.7281035099       40.6953548855  TIP3      5300            0.0000000000
     40815      5500  TIP3      H1             -9.3622172326       20.8949317030       40.5491840737  TIP3      5300            0.0000000000
     40816      5500  TIP3      H2             -8.0736059981       21.5868347601       41.0284355137  TIP3      5300            0.0000000000
     40817      5501  TIP3      OH2            -7.6764621056       22.6594566719       42.3072257639  TIP3      5301            0.0000000000
     40818      5501  TIP3      H1             -6.7960554109       22.5229431177       42.7137024966  TIP3      5301            0.0000000000
     40819      5501  TIP3      H2             -7.5643726199       23.4823739839       41.8014892928  TIP3      5301            0.0000000000
     40820      5502  TIP3      OH2           -17.2263221012       27.2653094125       48.2605873958  TIP3      5302            0.0000000000
     40821      5502  TIP3      H1            -16.4709596774       27.2478883466       47.6480924765  TIP3      5302            0.0000000000
     40822      5502  TIP3      H2            -17.0495690347       26.4568804148       48.7580822067  TIP3      5302            0.0000000000
     40823      5503  TIP3      OH2           -10.1372778484       29.4216320348       41.5429197516  TIP3      5303            0.0000000000
     40824      5503  TIP3      H1            -10.5282119134       30.2357670037       41.9207468423  TIP3      5303            0.0000000000
     40825      5503  TIP3      H2            -10.8496071871       28.7771776419       41.7486990772  TIP3      5303            0.0000000000
     40826      5504  TIP3      OH2            -2.7586552078       22.8017377602       42.0866806148  TIP3      5304            0.0000000000
     40827      5504  TIP3      H1             -3.3349296196       22.5128646573       41.3541885927  TIP3      5304            0.0000000000
     40828      5504  TIP3      H2             -2.6926340288       23.7538844102       41.8353589706  TIP3      5304            0.0000000000
     40829      5505  TIP3      OH2            -4.6635191303       31.6275014932       42.4050782554  TIP3      5305            0.0000000000
     40830      5505  TIP3      H1             -4.7874037817       30.7815132530       42.8682310127  TIP3      5305            0.0000000000
     40831      5505  TIP3      H2             -4.1079330756       31.3951037373       41.6365336334  TIP3      5305            0.0000000000
     40832      5506  TIP3      OH2            -7.5931573604       26.5098000370       48.8825164197  TIP3      5306            0.0000000000
     40833      5506  TIP3      H1             -8.3613707264       26.2968884974       49.4508928671  TIP3      5306            0.0000000000
     40834      5506  TIP3      H2             -7.0756201770       25.6789114908       48.8665835068  TIP3      5306            0.0000000000
     40835      5507  TIP3      OH2           -14.7532572272       30.7774736464       45.7091577133  TIP3      5307            0.0000000000
     40836      5507  TIP3      H1            -14.2554852899       31.5844549326       45.5001313237  TIP3      5307            0.0000000000
     40837      5507  TIP3      H2            -15.6297636897       30.9998668480       45.3669465470  TIP3      5307            0.0000000000
     40838      5508  TIP3      OH2           -18.9837492522       25.6231404479       40.2477072997  TIP3      5308            0.0000000000
     40839      5508  TIP3      H1            -18.4079745019       26.2781569026       40.6772580162  TIP3      5308            0.0000000000
     40840      5508  TIP3      H2            -19.8767722446       25.9218780923       40.5125324267  TIP3      5308            0.0000000000
     40841      5509  TIP3      OH2           -13.3489498686       28.4487140385       45.1926865703  TIP3      5309            0.0000000000
     40842      5509  TIP3      H1            -13.6586556847       29.3630575960       45.3175869418  TIP3      5309            0.0000000000
     40843      5509  TIP3      H2            -14.0627908823       27.9517507760       45.6338796519  TIP3      5309            0.0000000000
     40844      5510  TIP3      OH2           -14.6544911731       33.4404156307       44.7229852914  TIP3      5310            0.0000000000
     40845      5510  TIP3      H1            -15.6195541556       33.5523361481       44.8779407660  TIP3      5310            0.0000000000
     40846      5510  TIP3      H2            -14.2985419780       34.2682048678       45.1004903076  TIP3      5310            0.0000000000
     40847      5511  TIP3      OH2            -7.0466433135       29.7607889600       40.3975020518  TIP3      5311            0.0000000000
     40848      5511  TIP3      H1             -6.7185632626       29.1727841723       41.1175968253  TIP3      5311            0.0000000000
     40849      5511  TIP3      H2             -7.9698118645       29.4247295321       40.3759716083  TIP3      5311            0.0000000000
     40850      5512  TIP3      OH2            -2.6078567684       34.0376616141       40.5858359145  TIP3      5312            0.0000000000
     40851      5512  TIP3      H1             -1.8941571747       34.6716980594       40.3689078538  TIP3      5312            0.0000000000
     40852      5512  TIP3      H2             -3.2996036509       34.6788308130       40.8676922227  TIP3      5312            0.0000000000
     40853      5513  TIP3      OH2            -6.2533143148       28.3398258347       42.5704421159  TIP3      5313            0.0000000000
     40854      5513  TIP3      H1             -6.4923632294       27.5502924806       43.1142919201  TIP3      5313            0.0000000000
     40855      5513  TIP3      H2             -5.2988138466       28.3616175366       42.7468775480  TIP3      5313            0.0000000000
     40856      5514  TIP3      OH2           -12.8905709200       30.7706458509       38.8252592603  TIP3      5314            0.0000000000
     40857      5514  TIP3      H1            -12.7972816040       29.9998326424       38.2417273485  TIP3      5314            0.0000000000
     40858      5514  TIP3      H2            -13.3403867035       30.3415600385       39.5877471071  TIP3      5314            0.0000000000
     40859      5515  TIP3      OH2           -14.1300805808       30.2937487162       41.2796825368  TIP3      5315            0.0000000000
     40860      5515  TIP3      H1            -13.8576664389       29.7792417548       42.0491613628  TIP3      5315            0.0000000000
     40861      5515  TIP3      H2            -14.0393341185       31.2197515628       41.6029376048  TIP3      5315            0.0000000000
     40862      5516  TIP3      OH2           -17.5879978050       27.5392361736       41.7595166116  TIP3      5316            0.0000000000
     40863      5516  TIP3      H1            -18.3001278297       27.9348425645       42.3020191517  TIP3      5316            0.0000000000
     40864      5516  TIP3      H2            -17.0776420146       28.3198182796       41.4784604181  TIP3      5316            0.0000000000
     40865      5517  TIP3      OH2            -8.9561815496       19.7528362005       43.1619866850  TIP3      5317            0.0000000000
     40866      5517  TIP3      H1             -8.8013858298       20.2775728636       42.3531183443  TIP3      5317            0.0000000000
     40867      5517  TIP3      H2             -8.4669895843       20.2714802207       43.8201798956  TIP3      5317            0.0000000000
     40868      5518  TIP3      OH2           -11.2994246192       31.9634314787       41.9714657771  TIP3      5318            0.0000000000
     40869      5518  TIP3      H1            -12.1408524192       32.4638657567       42.0608601281  TIP3      5318            0.0000000000
     40870      5518  TIP3      H2            -10.8194567812       32.5406226605       41.3668056853  TIP3      5318            0.0000000000
     40871      5519  TIP3      OH2           -11.7772147116       21.5445338190       43.9805602412  TIP3      5319            0.0000000000
     40872      5519  TIP3      H1            -11.0025030866       22.1367306532       44.0395933178  TIP3      5319            0.0000000000
     40873      5519  TIP3      H2            -12.0523558571       21.4110060065       44.9067947053  TIP3      5319            0.0000000000
     40874      5520  TIP3      OH2           -10.9441237365       18.6189640744       44.8627995983  TIP3      5320            0.0000000000
     40875      5520  TIP3      H1            -11.2531210379       19.2571823474       45.5300143973  TIP3      5320            0.0000000000
     40876      5520  TIP3      H2            -10.2369853918       19.1546588594       44.4303556215  TIP3      5320            0.0000000000
     40877      5521  TIP3      OH2           -13.9304401725       32.9913177428       42.0000391501  TIP3      5321            0.0000000000
     40878      5521  TIP3      H1            -13.8221221757       33.8081957933       41.4510834967  TIP3      5321            0.0000000000
     40879      5521  TIP3      H2            -14.1938885015       33.3560010389       42.8745069095  TIP3      5321            0.0000000000
     40880      5522  TIP3      OH2           -15.2769244255       19.7112472639       41.5838848563  TIP3      5322            0.0000000000
     40881      5522  TIP3      H1            -15.3261432813       20.6100425509       41.9675250274  TIP3      5322            0.0000000000
     40882      5522  TIP3      H2            -14.3681432702       19.4667362799       41.8471445913  TIP3      5322            0.0000000000
     40883      5523  TIP3      OH2            -6.4755536654       24.2839763821       47.9621753850  TIP3      5323            0.0000000000
     40884      5523  TIP3      H1             -7.2896122088       23.7956467820       47.7567600545  TIP3      5323            0.0000000000
     40885      5523  TIP3      H2             -5.9785286811       23.5957674827       48.4664648840  TIP3      5323            0.0000000000
     40886      5524  TIP3      OH2           -17.0418066991       30.1457002894       40.6235187372  TIP3      5324            0.0000000000
     40887      5524  TIP3      H1            -16.3762381321       30.7764415091       40.9390925348  TIP3      5324            0.0000000000
     40888      5524  TIP3      H2            -16.5148891356       29.6835108256       39.9404069891  TIP3      5324            0.0000000000
     40889      5525  TIP3      OH2           -18.6993510838       22.8311505356       39.7615982875  TIP3      5325            0.0000000000
     40890      5525  TIP3      H1            -18.6846722779       23.7854383756       39.9805216996  TIP3      5325            0.0000000000
     40891      5525  TIP3      H2            -19.5939124926       22.6530865589       39.4611875139  TIP3      5325            0.0000000000
     40892      5526  TIP3      OH2            -5.0889316024       33.7460286301       49.6002353744  TIP3      5326            0.0000000000
     40893      5526  TIP3      H1             -5.2642812903       34.3794344457       48.8654527679  TIP3      5326            0.0000000000
     40894      5526  TIP3      H2             -4.1444197301       33.7397048404       49.7499084659  TIP3      5326            0.0000000000
     40895      5527  TIP3      OH2           -17.8904326352       17.5959227224       48.4492831798  TIP3      5327            0.0000000000
     40896      5527  TIP3      H1            -18.1031661396       17.6244605133       47.4970633208  TIP3      5327            0.0000000000
     40897      5527  TIP3      H2            -18.2633352230       16.7511086787       48.7382985207  TIP3      5327            0.0000000000
     40898      5528  TIP3      OH2           -18.9316016927       31.5333906119       44.6579623935  TIP3      5328            0.0000000000
     40899      5528  TIP3      H1            -19.7815177943       31.9898214669       44.5946537896  TIP3      5328            0.0000000000
     40900      5528  TIP3      H2            -18.4488764866       31.9955972531       43.9585949472  TIP3      5328            0.0000000000
     40901      5529  TIP3      OH2           -10.8660479717       32.6052055105       38.9847711590  TIP3      5329            0.0000000000
     40902      5529  TIP3      H1            -11.6060200795       31.9753740703       39.1605935905  TIP3      5329            0.0000000000
     40903      5529  TIP3      H2            -10.2073249804       31.9887037400       38.6492557985  TIP3      5329            0.0000000000
     40904      5530  TIP3      OH2            -6.2901156937       32.3338877395       39.1003629181  TIP3      5330            0.0000000000
     40905      5530  TIP3      H1             -5.8913557644       31.5434865448       39.4849010013  TIP3      5330            0.0000000000
     40906      5530  TIP3      H2             -5.5555630234       32.6252596792       38.5117608331  TIP3      5330            0.0000000000
     40907      5531  TIP3      OH2           -15.4560880961       28.3103657328       38.9547539218  TIP3      5331            0.0000000000
     40908      5531  TIP3      H1            -15.3296815867       27.5409277012       39.5302010247  TIP3      5331            0.0000000000
     40909      5531  TIP3      H2            -14.7112347331       28.1840370467       38.3352020758  TIP3      5331            0.0000000000
     40910      5532  TIP3      OH2            -9.9770540809       29.4167458690       38.7568371364  TIP3      5332            0.0000000000
     40911      5532  TIP3      H1            -10.3463982044       29.4891388275       39.6528929463  TIP3      5332            0.0000000000
     40912      5532  TIP3      H2            -10.2182188699       28.4723070831       38.5730629900  TIP3      5332            0.0000000000
     40913      5533  TIP3      OH2           -14.2631835443       26.3237223197       41.3767182197  TIP3      5333            0.0000000000
     40914      5533  TIP3      H1            -14.7622031521       25.7822863212       42.0098813259  TIP3      5333            0.0000000000
     40915      5533  TIP3      H2            -13.9590567668       25.6478174370       40.7295918991  TIP3      5333            0.0000000000
     40916      5534  TIP3      OH2           -13.1855278998       24.5427363806       39.5832541258  TIP3      5334            0.0000000000
     40917      5534  TIP3      H1            -13.3520404045       24.4399197975       38.6231072756  TIP3      5334            0.0000000000
     40918      5534  TIP3      H2            -12.2081666262       24.5938034203       39.6451313552  TIP3      5334            0.0000000000
     40919      5535  TIP3      OH2            -3.8552077275       26.8515892268       38.9921901704  TIP3      5335            0.0000000000
     40920      5535  TIP3      H1             -4.0432402201       26.4780376416       38.1188863430  TIP3      5335            0.0000000000
     40921      5535  TIP3      H2             -3.7434459441       27.8112713857       38.7984039012  TIP3      5335            0.0000000000
     40922      5536  TIP3      OH2           -13.3546470602       35.2454961645       40.6556427497  TIP3      5336            0.0000000000
     40923      5536  TIP3      H1            -12.3890096097       35.3371486218       40.7315163616  TIP3      5336            0.0000000000
     40924      5536  TIP3      H2            -13.5026967980       35.8572083553       39.9218901913  TIP3      5336            0.0000000000
     40925      5537  TIP3      OH2           -19.7994338278       29.8154879154       40.1324306727  TIP3      5337            0.0000000000
     40926      5537  TIP3      H1            -18.8330530752       29.9109815019       40.3189303987  TIP3      5337            0.0000000000
     40927      5537  TIP3      H2            -19.7458462689       29.1758330834       39.3828001700  TIP3      5337            0.0000000000
     40928      5538  TIP3      OH2           -20.9845182063       35.2390805316       45.0622447727  TIP3      5338            0.0000000000
     40929      5538  TIP3      H1            -21.7250678798       34.7502808908       44.6347688623  TIP3      5338            0.0000000000
     40930      5538  TIP3      H2            -20.7260226547       34.5810077782       45.7413182719  TIP3      5338            0.0000000000
     40931      5539  TIP3      OH2           -20.2601653661       33.3504615578       46.8906901156  TIP3      5339            0.0000000000
     40932      5539  TIP3      H1            -20.5244710428       32.4471357506       47.1269947787  TIP3      5339            0.0000000000
     40933      5539  TIP3      H2            -19.9178698755       33.6578970445       47.7709722602  TIP3      5339            0.0000000000
     40934      5540  TIP3      OH2            -3.3212383711       27.7866447272       42.9430829233  TIP3      5340            0.0000000000
     40935      5540  TIP3      H1             -2.4523496198       28.1719243484       43.1347827509  TIP3      5340            0.0000000000
     40936      5540  TIP3      H2             -3.3376771659       27.0606544108       43.6047196976  TIP3      5340            0.0000000000
     40937      5541  TIP3      OH2            -2.9750095066       25.8599042009       44.8167132043  TIP3      5341            0.0000000000
     40938      5541  TIP3      H1             -3.7128247121       25.3597693724       45.2269920331  TIP3      5341            0.0000000000
     40939      5541  TIP3      H2             -2.3590437035       25.9902766499       45.5724371545  TIP3      5341            0.0000000000
     40940      5542  TIP3      OH2            -3.1028746712       28.8072704552       49.6934537765  TIP3      5342            0.0000000000
     40941      5542  TIP3      H1             -2.3078346879       28.2921302225       49.4617084579  TIP3      5342            0.0000000000
     40942      5542  TIP3      H2             -2.9128031654       29.7470033388       49.5689775871  TIP3      5342            0.0000000000
     40943      5543  TIP3      OH2            -2.6626407887       25.6817341551       41.2278286720  TIP3      5343            0.0000000000
     40944      5543  TIP3      H1             -3.2287184505       26.0227738250       40.5038333298  TIP3      5343            0.0000000000
     40945      5543  TIP3      H2             -2.7625296599       26.3956774629       41.8849309559  TIP3      5343            0.0000000000
     40946      5544  TIP3      OH2            -4.2837178974       22.9038836178       39.7366008928  TIP3      5344            0.0000000000
     40947      5544  TIP3      H1             -4.2084255115       23.5729960098       39.0458745899  TIP3      5344            0.0000000000
     40948      5544  TIP3      H2             -4.4714509871       22.0839571656       39.2417806044  TIP3      5344            0.0000000000
     40949      5545  TIP3      OH2            -5.1381798020       24.3212239701       45.4339376509  TIP3      5345            0.0000000000
     40950      5545  TIP3      H1             -5.2835121835       23.3643437762       45.3813879400  TIP3      5345            0.0000000000
     40951      5545  TIP3      H2             -5.4864496757       24.5230275463       46.3225894470  TIP3      5345            0.0000000000
     40952      5546  TIP3      OH2           -20.1531910992       26.4900685626       49.3404540306  TIP3      5346            0.0000000000
     40953      5546  TIP3      H1            -19.9169030299       26.3230625019       48.4081413791  TIP3      5346            0.0000000000
     40954      5546  TIP3      H2            -19.3376767253       26.2585268121       49.8194775015  TIP3      5346            0.0000000000
     40955      5547  TIP3      OH2            -5.0329725124       20.3642009134       38.8638885866  TIP3      5347            0.0000000000
     40956      5547  TIP3      H1             -4.4384804967       19.9626419180       39.5237000907  TIP3      5347            0.0000000000
     40957      5547  TIP3      H2             -5.9087643831       19.9833855496       39.0298570431  TIP3      5347            0.0000000000
     40958      5548  TIP3      OH2            -5.4964119682       21.9145808651       43.8199404873  TIP3      5348            0.0000000000
     40959      5548  TIP3      H1             -5.1732039158       21.0044016435       44.0021804407  TIP3      5348            0.0000000000
     40960      5548  TIP3      H2             -4.6701679581       22.3172301988       43.5226240548  TIP3      5348            0.0000000000
     40961      5549  TIP3      OH2            -4.8676783856       22.5747439633       48.8678475217  TIP3      5349            0.0000000000
     40962      5549  TIP3      H1             -3.9069431912       22.6107621097       49.0676951397  TIP3      5349            0.0000000000
     40963      5549  TIP3      H2             -5.2350766788       22.5050315558       49.7796082623  TIP3      5349            0.0000000000
     40964      5550  TIP3      OH2            -4.7978500157       19.1871365919       43.9006338104  TIP3      5350            0.0000000000
     40965      5550  TIP3      H1             -4.5847180420       18.7887927691       44.7765332596  TIP3      5350            0.0000000000
     40966      5550  TIP3      H2             -5.4235401800       18.5663877291       43.5044488067  TIP3      5350            0.0000000000
     40967      5551  TIP3      OH2           -19.3434244668       20.0168841972       48.4641229481  TIP3      5351            0.0000000000
     40968      5551  TIP3      H1            -18.8930806316       19.1804679358       48.7074850911  TIP3      5351            0.0000000000
     40969      5551  TIP3      H2            -18.7762298107       20.6817596746       48.8914086010  TIP3      5351            0.0000000000
     40970      5552  TIP3      OH2           -21.0433380875       22.9826861199       49.5173102061  TIP3      5352            0.0000000000
     40971      5552  TIP3      H1            -20.5080431873       22.7500202244       48.7270533388  TIP3      5352            0.0000000000
     40972      5552  TIP3      H2            -20.5999076478       23.8180991478       49.7455697155  TIP3      5352            0.0000000000
     40973      5553  TIP3      OH2            -2.9942337872       19.2230448586       40.4597581269  TIP3      5353            0.0000000000
     40974      5553  TIP3      H1             -2.5375281535       18.5416433117       39.9237980549  TIP3      5353            0.0000000000
     40975      5553  TIP3      H2             -2.2995094531       19.9047590953       40.5209794062  TIP3      5353            0.0000000000
     40976      5554  TIP3      OH2           -20.6656026056       19.2867630724       43.5892109903  TIP3      5354            0.0000000000
     40977      5554  TIP3      H1            -21.6098942343       19.4427131855       43.4239768990  TIP3      5354            0.0000000000
     40978      5554  TIP3      H2            -20.2489251474       19.7611097763       42.8511769720  TIP3      5354            0.0000000000
     40979      5555  TIP3      OH2            -5.9326080602       34.2090336124       45.5026986786  TIP3      5355            0.0000000000
     40980      5555  TIP3      H1             -5.2294625149       33.9170496408       44.8973571762  TIP3      5355            0.0000000000
     40981      5555  TIP3      H2             -5.4368360495       34.7481228949       46.1456583343  TIP3      5355            0.0000000000
     40982      5556  TIP3      OH2           -18.9088445590       33.8527186466       48.9861776575  TIP3      5356            0.0000000000
     40983      5556  TIP3      H1            -18.8150493593       33.7339458756       49.9412089268  TIP3      5356            0.0000000000
     40984      5556  TIP3      H2            -17.9720921770       33.6938066167       48.7528308222  TIP3      5356            0.0000000000
     40985      5557  TIP3      OH2           -16.6479883430       32.7335967472       47.9127828649  TIP3      5357            0.0000000000
     40986      5557  TIP3      H1            -16.7780906480       31.7826949335       48.0868258900  TIP3      5357            0.0000000000
     40987      5557  TIP3      H2            -15.7811334393       32.8589644165       48.3479866763  TIP3      5357            0.0000000000
     40988      5558  TIP3      OH2           -14.0861042767       33.2102367898       48.7621004343  TIP3      5358            0.0000000000
     40989      5558  TIP3      H1            -13.8639070441       32.3043327383       48.4952978368  TIP3      5358            0.0000000000
     40990      5558  TIP3      H2            -14.0196017633       33.1378536628       49.7179212487  TIP3      5358            0.0000000000
     40991      5559  TIP3      OH2           -10.5643069862       18.9151186219       47.9005070369  TIP3      5359            0.0000000000
     40992      5559  TIP3      H1            -11.2081454252       18.2617992312       48.2372862273  TIP3      5359            0.0000000000
     40993      5559  TIP3      H2             -9.9935548447       18.3314217026       47.3848457297  TIP3      5359            0.0000000000
     40994      5560  TIP3      OH2            -5.4167085308       16.9465861224       47.9687476721  TIP3      5360            0.0000000000
     40995      5560  TIP3      H1             -4.8227138147       17.5439237580       47.4640208032  TIP3      5360            0.0000000000
     40996      5560  TIP3      H2             -6.3113987303       17.3028767422       47.7913794887  TIP3      5360            0.0000000000
     40997      5561  TIP3      OH2            -3.7378133534       18.1680856736       46.2628462411  TIP3      5361            0.0000000000
     40998      5561  TIP3      H1             -3.0564094673       17.5887710668       45.8591360921  TIP3      5361            0.0000000000
     40999      5561  TIP3      H2             -3.2432545201       19.0116674527       46.3553164033  TIP3      5361            0.0000000000
     41000      5562  TIP3      OH2           -18.1905990847       17.4919994817       45.6944325487  TIP3      5362            0.0000000000
     41001      5562  TIP3      H1            -19.0022874888       17.2736202034       45.2104610369  TIP3      5362            0.0000000000
     41002      5562  TIP3      H2            -17.7365489309       16.6238633290       45.7219260688  TIP3      5362            0.0000000000
     41003      5563  TIP3      OH2           -19.4303034363       17.2379013546       41.4898557598  TIP3      5363            0.0000000000
     41004      5563  TIP3      H1            -18.9334249087       17.8847278866       40.9556950440  TIP3      5363            0.0000000000
     41005      5563  TIP3      H2            -19.9919192130       17.8110024112       42.0287105817  TIP3      5363            0.0000000000
     41006      5564  TIP3      OH2           -13.7198935636       17.3813095528       45.5579676884  TIP3      5364            0.0000000000
     41007      5564  TIP3      H1            -12.8325453359       17.7708464396       45.4718811067  TIP3      5364            0.0000000000
     41008      5564  TIP3      H2            -13.7533747878       17.1811463516       46.4941949359  TIP3      5364            0.0000000000
     41009      5565  TIP3      OH2            -7.9939117905       17.4421265422       47.1630850774  TIP3      5365            0.0000000000
     41010      5565  TIP3      H1             -8.0542226407       17.5500153652       46.2154663215  TIP3      5365            0.0000000000
     41011      5565  TIP3      H2             -8.3886885327       16.5495577659       47.3094050035  TIP3      5365            0.0000000000
     41012      5566  TIP3      OH2            -6.7520696037       17.3845534240       42.7427654396  TIP3      5366            0.0000000000
     41013      5566  TIP3      H1             -7.4650969544       18.0618414716       42.7677442990  TIP3      5366            0.0000000000
     41014      5566  TIP3      H2             -7.2094049805       16.6144159028       43.1716926728  TIP3      5366            0.0000000000
     41015      5567  TIP3      OH2           -19.5098159809       33.1743815437       42.5215982168  TIP3      5367            0.0000000000
     41016      5567  TIP3      H1            -20.1749830586       33.1710247975       41.8112596523  TIP3      5367            0.0000000000
     41017      5567  TIP3      H2            -19.5104608569       34.1260029682       42.7012864148  TIP3      5367            0.0000000000
     41018      5568  TIP3      OH2           -17.5940692332       19.1915609435       39.9833729619  TIP3      5368            0.0000000000
     41019      5568  TIP3      H1            -17.0642778173       18.5600185226       39.4713325651  TIP3      5368            0.0000000000
     41020      5568  TIP3      H2            -16.9353601789       19.5016783842       40.6333100194  TIP3      5368            0.0000000000
     41021      5569  TIP3      OH2           -12.5734524551       19.4214328800       42.4046028174  TIP3      5369            0.0000000000
     41022      5569  TIP3      H1            -12.3173619695       18.8449270004       43.1429340497  TIP3      5369            0.0000000000
     41023      5569  TIP3      H2            -12.4995070581       20.2884650488       42.8623915283  TIP3      5369            0.0000000000
     41024      5570  TIP3      OH2           -10.6377504229       34.4777337648       40.8640918154  TIP3      5370            0.0000000000
     41025      5570  TIP3      H1             -9.7439779931       34.7581844951       40.6162586759  TIP3      5370            0.0000000000
     41026      5570  TIP3      H2            -10.8827991142       33.9944772199       40.0452531643  TIP3      5370            0.0000000000
     41027      5571  TIP3      OH2            -3.9566578822       33.9843044818       43.5674539843  TIP3      5371            0.0000000000
     41028      5571  TIP3      H1             -4.1190098068       33.2118640122       42.9881167632  TIP3      5371            0.0000000000
     41029      5571  TIP3      H2             -3.9921372574       34.7383432457       42.9370258010  TIP3      5371            0.0000000000
     41030      5572  TIP3      OH2           -17.7085441915       34.1902424518       39.4530035567  TIP3      5372            0.0000000000
     41031      5572  TIP3      H1            -17.9696946501       34.4128955678       40.3585725465  TIP3      5372            0.0000000000
     41032      5572  TIP3      H2            -16.9355146118       33.6108733097       39.6064601617  TIP3      5372            0.0000000000
     41033      5573  TIP3      OH2             9.7702978241       26.6080709080       45.6294389490  TIP3      5373            0.0000000000
     41034      5573  TIP3      H1              9.7522986774       27.5912572189       45.6074748895  TIP3      5373            0.0000000000
     41035      5573  TIP3      H2              9.0312179726       26.3870024508       45.0355764472  TIP3      5373            0.0000000000
     41036      5574  TIP3      OH2             8.6230564611       25.8786315966       49.1384719330  TIP3      5374            0.0000000000
     41037      5574  TIP3      H1              8.5502365341       25.2337995867       49.8658878165  TIP3      5374            0.0000000000
     41038      5574  TIP3      H2              8.3142869593       25.4006032080       48.3553277875  TIP3      5374            0.0000000000
     41039      5575  TIP3      OH2            12.2259914423       28.7573349801       47.3542565831  TIP3      5375            0.0000000000
     41040      5575  TIP3      H1             11.8324398633       28.0799165387       47.9222943644  TIP3      5375            0.0000000000
     41041      5575  TIP3      H2             12.3473345060       29.4651324540       48.0470753833  TIP3      5375            0.0000000000
     41042      5576  TIP3      OH2             1.8762587244       30.0703474872       49.0555347216  TIP3      5376            0.0000000000
     41043      5576  TIP3      H1              1.5725190696       29.1603066662       48.8664387128  TIP3      5376            0.0000000000
     41044      5576  TIP3      H2              2.8204583881       29.8430892565       49.2186388519  TIP3      5376            0.0000000000
     41045      5577  TIP3      OH2            -1.4742459149       23.5481320776       44.6782536309  TIP3      5377            0.0000000000
     41046      5577  TIP3      H1             -1.8982545653       24.4240245306       44.6022306993  TIP3      5377            0.0000000000
     41047      5577  TIP3      H2             -2.0421858421       23.0162677786       44.1019192985  TIP3      5377            0.0000000000
     41048      5578  TIP3      OH2            -0.7890591682       25.7678151742       46.7703450976  TIP3      5378            0.0000000000
     41049      5578  TIP3      H1             -0.5133508449       24.9775173124       47.2665386212  TIP3      5378            0.0000000000
     41050      5578  TIP3      H2             -0.0517861953       25.8851476711       46.1569784123  TIP3      5378            0.0000000000
     41051      5579  TIP3      OH2             9.3951036202       33.9801751383       47.6881763653  TIP3      5379            0.0000000000
     41052      5579  TIP3      H1             10.0570979870       33.3190529608       47.3660789798  TIP3      5379            0.0000000000
     41053      5579  TIP3      H2              9.2186940045       33.6482804662       48.5679380576  TIP3      5379            0.0000000000
     41054      5580  TIP3      OH2             7.0392058067       28.3357629973       49.5650432299  TIP3      5380            0.0000000000
     41055      5580  TIP3      H1              7.3720941199       27.6448360596       48.9722493187  TIP3      5380            0.0000000000
     41056      5580  TIP3      H2              7.7893067212       28.4047916706       50.1584839210  TIP3      5380            0.0000000000
     41057      5581  TIP3      OH2            10.2108178877       22.7468193564       49.8811619770  TIP3      5381            0.0000000000
     41058      5581  TIP3      H1             10.2836999084       21.7756861570       49.9136511627  TIP3      5381            0.0000000000
     41059      5581  TIP3      H2             10.0385623586       22.8799721856       48.9262029585  TIP3      5381            0.0000000000
     41060      5582  TIP3      OH2             3.2853783568       20.8248446417       47.1112251485  TIP3      5382            0.0000000000
     41061      5582  TIP3      H1              3.3683405468       21.6701649184       46.6369918864  TIP3      5382            0.0000000000
     41062      5582  TIP3      H2              2.8569986350       20.2526310172       46.4384091587  TIP3      5382            0.0000000000
     41063      5583  TIP3      OH2            10.9828744755       20.9467632466       45.4930638592  TIP3      5383            0.0000000000
     41064      5583  TIP3      H1             11.6211330323       20.5819848364       46.1512541488  TIP3      5383            0.0000000000
     41065      5583  TIP3      H2             11.5674400731       21.4812621972       44.9448158081  TIP3      5383            0.0000000000
     41066      5584  TIP3      OH2            -0.1276947140       23.2053374876       47.8574930899  TIP3      5384            0.0000000000
     41067      5584  TIP3      H1              0.5541198438       22.6808211761       48.3238784477  TIP3      5384            0.0000000000
     41068      5584  TIP3      H2              0.0181016442       22.9141624022       46.9375503992  TIP3      5384            0.0000000000
     41069      5585  TIP3      OH2             5.0507466568       24.7810800761       47.1595202538  TIP3      5385            0.0000000000
     41070      5585  TIP3      H1              5.7216263077       24.1981312390       47.5624820641  TIP3      5385            0.0000000000
     41071      5585  TIP3      H2              4.5229924636       24.1379915011       46.6447639040  TIP3      5385            0.0000000000
     41072      5586  TIP3      OH2             9.4405521287       29.2127569016       44.7366548880  TIP3      5386            0.0000000000
     41073      5586  TIP3      H1              9.2055743102       28.9380352631       43.8421925304  TIP3      5386            0.0000000000
     41074      5586  TIP3      H2              9.1555710020       30.1528408810       44.7790829997  TIP3      5386            0.0000000000
     41075      5587  TIP3      OH2            12.7649476272       20.2890143034       47.4763547680  TIP3      5387            0.0000000000
     41076      5587  TIP3      H1             12.5575879006       19.5088752454       48.0179611673  TIP3      5387            0.0000000000
     41077      5587  TIP3      H2             13.4556411395       20.6476958078       48.0551975661  TIP3      5387            0.0000000000
     41078      5588  TIP3      OH2             1.7425666213       21.5945610329       49.1293802112  TIP3      5388            0.0000000000
     41079      5588  TIP3      H1              2.3086814984       22.2876079112       49.4671399420  TIP3      5388            0.0000000000
     41080      5588  TIP3      H2              2.2675280141       21.1690896122       48.4211560652  TIP3      5388            0.0000000000
     41081      5589  TIP3      OH2            -0.7886738685       28.9909918814       43.0197114849  TIP3      5389            0.0000000000
     41082      5589  TIP3      H1             -1.0343416033       29.3301879935       42.1423163186  TIP3      5389            0.0000000000
     41083      5589  TIP3      H2             -0.7079808583       29.8179810010       43.5356943541  TIP3      5389            0.0000000000
     41084      5590  TIP3      OH2            12.8695985854       30.3719279533       49.2793640501  TIP3      5390            0.0000000000
     41085      5590  TIP3      H1             12.0821853657       30.4940942532       49.8520314824  TIP3      5390            0.0000000000
     41086      5590  TIP3      H2             13.2340715393       31.2460471181       49.4622367325  TIP3      5390            0.0000000000
     41087      5591  TIP3      OH2             6.1390255710       17.1018420577       48.6004251863  TIP3      5391            0.0000000000
     41088      5591  TIP3      H1              6.0456819755       16.1315694070       48.5596860467  TIP3      5391            0.0000000000
     41089      5591  TIP3      H2              5.2487534352       17.3862541902       48.8947791094  TIP3      5391            0.0000000000
     41090      5592  TIP3      OH2            11.0457487877       32.4611300113       46.3451170867  TIP3      5392            0.0000000000
     41091      5592  TIP3      H1             11.4985340102       31.7394172177       45.8547399952  TIP3      5392            0.0000000000
     41092      5592  TIP3      H2             11.5084997216       33.2579976215       46.0011829894  TIP3      5392            0.0000000000
     41093      5593  TIP3      OH2            12.2915437915       30.3917488491       44.9152937744  TIP3      5393            0.0000000000
     41094      5593  TIP3      H1             11.9941388116       29.6875437345       44.3153576331  TIP3      5393            0.0000000000
     41095      5593  TIP3      H2             12.3269873743       29.8922837404       45.7509289046  TIP3      5393            0.0000000000
     41096      5594  TIP3      OH2             8.4081669030       25.8566706374       43.1452446944  TIP3      5394            0.0000000000
     41097      5594  TIP3      H1              7.7120524028       26.4346909734       42.7792461769  TIP3      5394            0.0000000000
     41098      5594  TIP3      H2              9.1149822298       25.9532477925       42.4788635864  TIP3      5394            0.0000000000
     41099      5595  TIP3      OH2             8.4870743257       24.4299243681       40.1492093827  TIP3      5395            0.0000000000
     41100      5595  TIP3      H1              9.1914908899       24.4115176727       40.8146843384  TIP3      5395            0.0000000000
     41101      5595  TIP3      H2              8.7929534437       23.7100952163       39.5825088948  TIP3      5395            0.0000000000
     41102      5596  TIP3      OH2            11.8641616858       26.0843193967       44.0510113278  TIP3      5396            0.0000000000
     41103      5596  TIP3      H1             11.0923137571       26.3227740002       44.6299154149  TIP3      5396            0.0000000000
     41104      5596  TIP3      H2             12.3054965006       25.3844876023       44.5477152197  TIP3      5396            0.0000000000
     41105      5597  TIP3      OH2             3.4488185916       26.7216984483       45.9832178399  TIP3      5397            0.0000000000
     41106      5597  TIP3      H1              3.1282174707       26.3418682718       45.1326713031  TIP3      5397            0.0000000000
     41107      5597  TIP3      H2              4.0937364659       26.0438222631       46.2742983163  TIP3      5397            0.0000000000
     41108      5598  TIP3      OH2             4.8559798442       30.1733794044       48.6218886619  TIP3      5398            0.0000000000
     41109      5598  TIP3      H1              4.7881714363       29.5993306836       47.8466328416  TIP3      5398            0.0000000000
     41110      5598  TIP3      H2              5.5713764310       29.7472872260       49.1257438953  TIP3      5398            0.0000000000
     41111      5599  TIP3      OH2             3.6847286932       25.5594354257       49.4844319814  TIP3      5399            0.0000000000
     41112      5599  TIP3      H1              4.3250589151       25.6299645987       48.7619806835  TIP3      5399            0.0000000000
     41113      5599  TIP3      H2              4.1421446732       26.0188859190       50.2085406428  TIP3      5399            0.0000000000
     41114      5600  TIP3      OH2            10.7297544999       25.2769346802       41.7229819451  TIP3      5400            0.0000000000
     41115      5600  TIP3      H1             11.2783312559       25.4639669903       42.5216255791  TIP3      5400            0.0000000000
     41116      5600  TIP3      H2             11.1834413824       25.7683928930       41.0012102038  TIP3      5400            0.0000000000
     41117      5601  TIP3      OH2             8.4398454145       31.9805091913       45.1849283236  TIP3      5401            0.0000000000
     41118      5601  TIP3      H1              8.8736826497       32.2969279946       45.9861009033  TIP3      5401            0.0000000000
     41119      5601  TIP3      H2              7.8819752586       32.7332441813       44.9510815589  TIP3      5401            0.0000000000
     41120      5602  TIP3      OH2            14.4644053476       17.0003229630       41.6438805855  TIP3      5402            0.0000000000
     41121      5602  TIP3      H1             13.5134637300       17.1105599972       41.8721573931  TIP3      5402            0.0000000000
     41122      5602  TIP3      H2             14.6588153198       17.8375169850       41.1884577594  TIP3      5402            0.0000000000
     41123      5603  TIP3      OH2             2.4218830638       25.7507930798       43.6211549228  TIP3      5403            0.0000000000
     41124      5603  TIP3      H1              2.1472280054       26.5309132342       43.0933064405  TIP3      5403            0.0000000000
     41125      5603  TIP3      H2              1.7832665307       25.0819134035       43.3605096832  TIP3      5403            0.0000000000
     41126      5604  TIP3      OH2            15.5688908491       31.3555048976       39.9816528941  TIP3      5404            0.0000000000
     41127      5604  TIP3      H1             15.7346569507       32.2988913082       40.1502962425  TIP3      5404            0.0000000000
     41128      5604  TIP3      H2             16.4919910880       31.0422321401       39.9787130067  TIP3      5404            0.0000000000
     41129      5605  TIP3      OH2            -1.6447177486       31.0929863352       49.0709355068  TIP3      5405            0.0000000000
     41130      5605  TIP3      H1             -0.7435425746       30.8051422995       49.2620551945  TIP3      5405            0.0000000000
     41131      5605  TIP3      H2             -1.8240869622       31.7577291555       49.7404847818  TIP3      5405            0.0000000000
     41132      5606  TIP3      OH2             7.9114988866       34.8963031318       43.6089779741  TIP3      5406            0.0000000000
     41133      5606  TIP3      H1              7.8063692255       34.8241917145       42.6444817234  TIP3      5406            0.0000000000
     41134      5606  TIP3      H2              7.9122871281       35.8583830303       43.7640540450  TIP3      5406            0.0000000000
     41135      5607  TIP3      OH2             1.5802929634       33.7648117500       45.4120143146  TIP3      5407            0.0000000000
     41136      5607  TIP3      H1              1.7197193245       33.3654201175       46.2980115284  TIP3      5407            0.0000000000
     41137      5607  TIP3      H2              0.7171102245       33.3772960802       45.1953277664  TIP3      5407            0.0000000000
     41138      5608  TIP3      OH2            10.9837717912       34.1309151713       40.5857958736  TIP3      5408            0.0000000000
     41139      5608  TIP3      H1             11.4347343077       33.3632232090       40.1570380310  TIP3      5408            0.0000000000
     41140      5608  TIP3      H2             11.0161441878       33.8646790220       41.5338911062  TIP3      5408            0.0000000000
     41141      5609  TIP3      OH2            10.6770930341       34.0483297512       43.3503169467  TIP3      5409            0.0000000000
     41142      5609  TIP3      H1              9.7219545861       34.1420806767       43.5521945788  TIP3      5409            0.0000000000
     41143      5609  TIP3      H2             10.9080315372       33.3131815523       43.9414691888  TIP3      5409            0.0000000000
     41144      5610  TIP3      OH2             3.4680344886       17.9509984743       49.4205597721  TIP3      5410            0.0000000000
     41145      5610  TIP3      H1              2.6002890342       17.8427067226       48.9655899963  TIP3      5410            0.0000000000
     41146      5610  TIP3      H2              3.3965699135       18.8172739442       49.8275578549  TIP3      5410            0.0000000000
     41147      5611  TIP3      OH2            12.1862585985       26.2961602910       39.5496432424  TIP3      5411            0.0000000000
     41148      5611  TIP3      H1             12.1582268169       26.1116887547       38.5830682929  TIP3      5411            0.0000000000
     41149      5611  TIP3      H2             13.0387514672       26.7516373425       39.5934600641  TIP3      5411            0.0000000000
     41150      5612  TIP3      OH2             7.7750043627       20.2269735360       40.0534432994  TIP3      5412            0.0000000000
     41151      5612  TIP3      H1              7.4600697111       20.1632165980       40.9734001774  TIP3      5412            0.0000000000
     41152      5612  TIP3      H2              7.4671512578       19.3496287224       39.7471055674  TIP3      5412            0.0000000000
     41153      5613  TIP3      OH2             3.5464452599       23.0708429840       45.4731038545  TIP3      5413            0.0000000000
     41154      5613  TIP3      H1              2.6111365053       22.8010095332       45.3618387274  TIP3      5413            0.0000000000
     41155      5613  TIP3      H2              3.9218800372       22.7726079816       44.6201980775  TIP3      5413            0.0000000000
     41156      5614  TIP3      OH2             9.0728269260       23.5664054846       44.2637592709  TIP3      5414            0.0000000000
     41157      5614  TIP3      H1              8.6850855469       24.4003262152       43.9170843690  TIP3      5414            0.0000000000
     41158      5614  TIP3      H2              9.7496056489       23.3863180380       43.5901871789  TIP3      5414            0.0000000000
     41159      5615  TIP3      OH2            10.1422440598       23.0545135491       47.1110086962  TIP3      5415            0.0000000000
     41160      5615  TIP3      H1              9.8205909510       23.6140324052       46.3756877273  TIP3      5415            0.0000000000
     41161      5615  TIP3      H2             10.2004720219       22.2014400042       46.6235089014  TIP3      5415            0.0000000000
     41162      5616  TIP3      OH2             4.5850254804       20.5918429343       39.1714083317  TIP3      5416            0.0000000000
     41163      5616  TIP3      H1              4.1306197860       20.1710675798       39.9293285615  TIP3      5416            0.0000000000
     41164      5616  TIP3      H2              3.8756058063       21.0245164807       38.6805800442  TIP3      5416            0.0000000000
     41165      5617  TIP3      OH2            -2.1314580532       20.3446452370       46.2603520587  TIP3      5417            0.0000000000
     41166      5617  TIP3      H1             -1.4660894589       20.2908156870       46.9792319078  TIP3      5417            0.0000000000
     41167      5617  TIP3      H2             -1.6826184388       19.9146547155       45.5114181207  TIP3      5417            0.0000000000
     41168      5618  TIP3      OH2            -0.8669509946       21.0127643233       41.6538473289  TIP3      5418            0.0000000000
     41169      5618  TIP3      H1             -0.3598084965       21.6226101720       41.0902778579  TIP3      5418            0.0000000000
     41170      5618  TIP3      H2             -1.5460273215       21.6364986133       41.9845822847  TIP3      5418            0.0000000000
     41171      5619  TIP3      OH2             6.1105531561       20.6678061599       46.5165381828  TIP3      5419            0.0000000000
     41172      5619  TIP3      H1              5.1772771674       20.6145320489       46.8014593931  TIP3      5419            0.0000000000
     41173      5619  TIP3      H2              6.6019120115       20.4427655035       47.3190743178  TIP3      5419            0.0000000000
     41174      5620  TIP3      OH2             0.9379580165       22.1745083975       45.3540986701  TIP3      5420            0.0000000000
     41175      5620  TIP3      H1              0.0397295358       22.3211326187       44.9923338959  TIP3      5420            0.0000000000
     41176      5620  TIP3      H2              1.1993204973       21.3257873783       44.9634336425  TIP3      5420            0.0000000000
     41177      5621  TIP3      OH2             4.5576986819       22.2145834488       43.0066139140  TIP3      5421            0.0000000000
     41178      5621  TIP3      H1              5.5149849804       22.3247632660       43.1626924470  TIP3      5421            0.0000000000
     41179      5621  TIP3      H2              4.3222748737       22.8959345094       42.3477692585  TIP3      5421            0.0000000000
     41180      5622  TIP3      OH2            10.5248823357       19.7971152123       49.5956847465  TIP3      5422            0.0000000000
     41181      5622  TIP3      H1              9.9221360113       19.8952983554       50.3538330683  TIP3      5422            0.0000000000
     41182      5622  TIP3      H2              9.9077801554       19.5777698095       48.8987819463  TIP3      5422            0.0000000000
     41183      5623  TIP3      OH2             3.2667228700       23.3904216357       40.5901612623  TIP3      5423            0.0000000000
     41184      5623  TIP3      H1              2.7334411408       23.0109438433       39.8707815009  TIP3      5423            0.0000000000
     41185      5623  TIP3      H2              4.0868661061       23.5986379666       40.1161443704  TIP3      5423            0.0000000000
     41186      5624  TIP3      OH2             7.3560593922       23.3312456089       48.3979477390  TIP3      5424            0.0000000000
     41187      5624  TIP3      H1              7.9826098665       22.8419304390       47.8405208286  TIP3      5424            0.0000000000
     41188      5624  TIP3      H2              7.2880330817       22.7794328621       49.1848288022  TIP3      5424            0.0000000000
     41189      5625  TIP3      OH2             2.4123823595       19.5115587458       44.8468465351  TIP3      5425            0.0000000000
     41190      5625  TIP3      H1              2.0839719251       18.5929764340       44.8171632348  TIP3      5425            0.0000000000
     41191      5625  TIP3      H2              3.1900578619       19.4458299507       44.2762929158  TIP3      5425            0.0000000000
     41192      5626  TIP3      OH2             6.6167012191       27.9194585476       42.5141542561  TIP3      5426            0.0000000000
     41193      5626  TIP3      H1              5.8167796929       27.4581566575       42.1753819600  TIP3      5426            0.0000000000
     41194      5626  TIP3      H2              6.3869657545       28.0497279188       43.4564660918  TIP3      5426            0.0000000000
     41195      5627  TIP3      OH2            10.4404127282       20.7358122542       40.6943449637  TIP3      5427            0.0000000000
     41196      5627  TIP3      H1              9.4907018713       20.8920703594       40.5496944548  TIP3      5427            0.0000000000
     41197      5627  TIP3      H2             10.7840127117       21.5891110113       41.0366247094  TIP3      5427            0.0000000000
     41198      5628  TIP3      OH2            11.1896205851       22.6591734967       42.3122359365  TIP3      5428            0.0000000000
     41199      5628  TIP3      H1             12.0723996939       22.5209303754       42.7044485079  TIP3      5428            0.0000000000
     41200      5628  TIP3      H2             11.2881810539       23.4795545083       41.8001432077  TIP3      5428            0.0000000000
     41201      5629  TIP3      OH2             1.6296254639       27.2652649016       48.2605959867  TIP3      5429            0.0000000000
     41202      5629  TIP3      H1              2.3850111803       27.2479511122       47.6481036915  TIP3      5429            0.0000000000
     41203      5629  TIP3      H2              1.8064508222       26.4568769322       48.7580887497  TIP3      5429            0.0000000000
     41204      5630  TIP3      OH2             8.7102916367       29.3915395357       41.5421198519  TIP3      5430            0.0000000000
     41205      5630  TIP3      H1              8.3680309767       30.2369375304       41.9001550543  TIP3      5430            0.0000000000
     41206      5630  TIP3      H2              7.9807051965       28.7749576348       41.7671073310  TIP3      5430            0.0000000000
     41207      5631  TIP3      OH2            16.0677548454       22.7900551919       42.1103729737  TIP3      5431            0.0000000000
     41208      5631  TIP3      H1             15.5309264960       22.5028764982       41.3444720811  TIP3      5431            0.0000000000
     41209      5631  TIP3      H2             16.1705900390       23.7317314039       41.8302366015  TIP3      5431            0.0000000000
     41210      5632  TIP3      OH2            14.3349669513       31.6249559398       42.4816709845  TIP3      5432            0.0000000000
     41211      5632  TIP3      H1             14.0076233648       30.7889510557       42.8326766760  TIP3      5432            0.0000000000
     41212      5632  TIP3      H2             14.6932638017       31.4042823272       41.6061635370  TIP3      5432            0.0000000000
     41213      5633  TIP3      OH2            11.2662106812       26.4860294611       48.8646916024  TIP3      5433            0.0000000000
     41214      5633  TIP3      H1             10.4901953438       26.3191664911       49.4459506046  TIP3      5433            0.0000000000
     41215      5633  TIP3      H2             11.7737095742       25.6644878034       48.9081426695  TIP3      5433            0.0000000000
     41216      5634  TIP3      OH2             4.0977502828       30.7735941841       45.7130706478  TIP3      5434            0.0000000000
     41217      5634  TIP3      H1              4.5986692726       31.5775906677       45.5025851466  TIP3      5434            0.0000000000
     41218      5634  TIP3      H2              3.2239932583       30.9992089044       45.3667922269  TIP3      5434            0.0000000000
     41219      5635  TIP3      OH2            -0.1334144401       25.6105173274       40.2670076173  TIP3      5435            0.0000000000
     41220      5635  TIP3      H1              0.4451301198       26.2765698536       40.6762153963  TIP3      5435            0.0000000000
     41221      5635  TIP3      H2             -1.0244802625       25.9241431477       40.5148331684  TIP3      5435            0.0000000000
     41222      5636  TIP3      OH2             5.5098375641       28.4471239437       45.1930287398  TIP3      5436            0.0000000000
     41223      5636  TIP3      H1              5.1984847699       29.3618861159       45.3182679695  TIP3      5436            0.0000000000
     41224      5636  TIP3      H2              4.7936900323       27.9521208582       45.6337788791  TIP3      5436            0.0000000000
     41225      5637  TIP3      OH2             4.1994783766       33.4413650056       44.7247146338  TIP3      5437            0.0000000000
     41226      5637  TIP3      H1              3.2344724896       33.5541876236       44.8789015067  TIP3      5437            0.0000000000
     41227      5637  TIP3      H2              4.5572010085       34.2690053062       45.1017104664  TIP3      5437            0.0000000000
     41228      5638  TIP3      OH2            11.8303035540       29.6972023046       40.3309491003  TIP3      5438            0.0000000000
     41229      5638  TIP3      H1             12.1239158342       29.2229584302       41.1348721583  TIP3      5438            0.0000000000
     41230      5638  TIP3      H2             10.8765207315       29.5129373900       40.4114185683  TIP3      5438            0.0000000000
     41231      5639  TIP3      OH2            16.2769862149       34.0462511484       40.5870547464  TIP3      5439            0.0000000000
     41232      5639  TIP3      H1             16.9764216056       34.6926396434       40.3703531082  TIP3      5439            0.0000000000
     41233      5639  TIP3      H2             15.5574615758       34.6608079518       40.8654354887  TIP3      5439            0.0000000000
     41234      5640  TIP3      OH2            12.6015769504       28.3310630229       42.5743229662  TIP3      5440            0.0000000000
     41235      5640  TIP3      H1             12.3605214017       27.5489134773       43.1205414093  TIP3      5440            0.0000000000
     41236      5640  TIP3      H2             13.5545507258       28.3708712633       42.7518676344  TIP3      5440            0.0000000000
     41237      5641  TIP3      OH2             5.9565961406       30.7693737223       38.8281328375  TIP3      5441            0.0000000000
     41238      5641  TIP3      H1              6.0544326191       30.0036962839       38.2375477055  TIP3      5441            0.0000000000
     41239      5641  TIP3      H2              5.5123402769       30.3368070329       39.5910044567  TIP3      5441            0.0000000000
     41240      5642  TIP3      OH2             4.7236677413       30.2937120888       41.2811640142  TIP3      5442            0.0000000000
     41241      5642  TIP3      H1              4.9991929394       29.7794426952       42.0495954337  TIP3      5442            0.0000000000
     41242      5642  TIP3      H2              4.8187147434       31.2197531762       41.6030803580  TIP3      5442            0.0000000000
     41243      5643  TIP3      OH2             1.2688081501       27.5400094615       41.7582345226  TIP3      5443            0.0000000000
     41244      5643  TIP3      H1              0.5567298378       27.9348524165       42.3016536884  TIP3      5443            0.0000000000
     41245      5643  TIP3      H2              1.7756917175       28.3204744326       41.4699709820  TIP3      5443            0.0000000000
     41246      5644  TIP3      OH2             9.8420726685       19.7928701388       43.1720806765  TIP3      5444            0.0000000000
     41247      5644  TIP3      H1             10.0709021625       20.2556345841       42.3431562426  TIP3      5444            0.0000000000
     41248      5644  TIP3      H2             10.4184545841       20.2398741408       43.8044443389  TIP3      5444            0.0000000000
     41249      5645  TIP3      OH2             7.5319963364       31.9556446862       41.9736488975  TIP3      5445            0.0000000000
     41250      5645  TIP3      H1              6.7149360674       32.4887995943       42.0469987381  TIP3      5445            0.0000000000
     41251      5645  TIP3      H2              8.0714007387       32.5078143652       41.3891769500  TIP3      5445            0.0000000000
     41252      5646  TIP3      OH2             7.0766533374       21.5461554384       43.9806756922  TIP3      5446            0.0000000000
     41253      5646  TIP3      H1              7.8545481782       22.1341285053       44.0387200200  TIP3      5446            0.0000000000
     41254      5646  TIP3      H2              6.8038831929       21.4109516955       44.9070438238  TIP3      5446            0.0000000000
     41255      5647  TIP3      OH2             7.9283111447       18.6096313849       44.8694546865  TIP3      5447            0.0000000000
     41256      5647  TIP3      H1              7.6048442457       19.2527306426       45.5272383782  TIP3      5447            0.0000000000
     41257      5647  TIP3      H2              8.6213762794       19.1574108695       44.4290785606  TIP3      5447            0.0000000000
     41258      5648  TIP3      OH2             4.9343669959       32.9937327435       42.0031916673  TIP3      5448            0.0000000000
     41259      5648  TIP3      H1              5.0235068301       33.8112642806       41.4518977053  TIP3      5448            0.0000000000
     41260      5648  TIP3      H2              4.6626948164       33.3568962024       42.8755496649  TIP3      5448            0.0000000000
     41261      5649  TIP3      OH2             3.5788699935       19.7113625954       41.5841504018  TIP3      5449            0.0000000000
     41262      5649  TIP3      H1              3.5297487113       20.6103261765       41.9673833814  TIP3      5449            0.0000000000
     41263      5649  TIP3      H2              4.4882790047       19.4678086524       41.8462419662  TIP3      5449            0.0000000000
     41264      5650  TIP3      OH2            12.4175489575       24.2269855458       47.9200313090  TIP3      5450            0.0000000000
     41265      5650  TIP3      H1             11.5245791310       23.8425363784       47.7723218703  TIP3      5450            0.0000000000
     41266      5650  TIP3      H2             12.7345021056       23.5801019385       48.5885283879  TIP3      5450            0.0000000000
     41267      5651  TIP3      OH2             1.8153524247       30.1498860035       40.6215718358  TIP3      5451            0.0000000000
     41268      5651  TIP3      H1              2.4869324178       30.7698030674       40.9411959231  TIP3      5451            0.0000000000
     41269      5651  TIP3      H2              2.3386790931       29.6844047770       39.9385204554  TIP3      5451            0.0000000000
     41270      5652  TIP3      OH2             0.1568143706       22.8263511915       39.7680680101  TIP3      5452            0.0000000000
     41271      5652  TIP3      H1              0.1766738678       23.7862409042       39.9741474887  TIP3      5452            0.0000000000
     41272      5652  TIP3      H2             -0.7351747742       22.6545575084       39.4612281486  TIP3      5452            0.0000000000
     41273      5653  TIP3      OH2            13.7667118638       33.7486925106       49.6038673534  TIP3      5453            0.0000000000
     41274      5653  TIP3      H1             13.5914437027       34.3783530099       48.8656321378  TIP3      5453            0.0000000000
     41275      5653  TIP3      H2             14.7115966225       33.7392123528       49.7495176113  TIP3      5453            0.0000000000
     41276      5654  TIP3      OH2             0.9658904225       17.5973350946       48.4498275211  TIP3      5454            0.0000000000
     41277      5654  TIP3      H1              0.7531826294       17.6244223155       47.4974478361  TIP3      5454            0.0000000000
     41278      5654  TIP3      H2              0.5925981752       16.7546394717       48.7439278856  TIP3      5454            0.0000000000
     41279      5655  TIP3      OH2            -0.0734647015       31.5301924392       44.6577313060  TIP3      5455            0.0000000000
     41280      5655  TIP3      H1             -0.9228199534       31.9872285156       44.6001670390  TIP3      5455            0.0000000000
     41281      5655  TIP3      H2              0.4081682384       31.9975731553       43.9612245266  TIP3      5455            0.0000000000
     41282      5656  TIP3      OH2             7.9504844094       32.6175728040       38.9493259810  TIP3      5456            0.0000000000
     41283      5656  TIP3      H1              7.2578929055       31.9584522785       39.1774980085  TIP3      5456            0.0000000000
     41284      5656  TIP3      H2              8.6686686820       32.0178142694       38.7035672142  TIP3      5456            0.0000000000
     41285      5657  TIP3      OH2            12.5033002308       32.3372809167       39.1418222103  TIP3      5457            0.0000000000
     41286      5657  TIP3      H1             12.8171084272       31.5681450745       39.6427325949  TIP3      5457            0.0000000000
     41287      5657  TIP3      H2             13.2577490395       32.6015700490       38.5939078856  TIP3      5457            0.0000000000
     41288      5658  TIP3      OH2             3.3962042465       28.3041294678       38.9546263521  TIP3      5458            0.0000000000
     41289      5658  TIP3      H1              3.5327546751       27.5415078464       39.5370968184  TIP3      5458            0.0000000000
     41290      5658  TIP3      H2              4.1443781679       28.1835809024       38.3376290485  TIP3      5458            0.0000000000
     41291      5659  TIP3      OH2             8.8265576584       29.4104159219       38.7348425877  TIP3      5459            0.0000000000
     41292      5659  TIP3      H1              8.5545209992       29.4918438736       39.6617336732  TIP3      5459            0.0000000000
     41293      5659  TIP3      H2              8.6365975900       28.4541676135       38.5882314654  TIP3      5459            0.0000000000
     41294      5660  TIP3      OH2             4.5951232004       26.3219448650       41.3808722869  TIP3      5460            0.0000000000
     41295      5660  TIP3      H1              4.0941515440       25.7827049683       42.0102382087  TIP3      5460            0.0000000000
     41296      5660  TIP3      H2              4.8975790176       25.6469443734       40.7294562387  TIP3      5460            0.0000000000
     41297      5661  TIP3      OH2             5.6740655336       24.5425399583       39.5820607055  TIP3      5461            0.0000000000
     41298      5661  TIP3      H1              5.5244553608       24.4542714231       38.6185367716  TIP3      5461            0.0000000000
     41299      5661  TIP3      H2              6.6501099663       24.5945434476       39.6498933664  TIP3      5461            0.0000000000
     41300      5662  TIP3      OH2            15.0015372461       26.8611298910       38.9932539207  TIP3      5462            0.0000000000
     41301      5662  TIP3      H1             14.8127799559       26.4817115538       38.1219780395  TIP3      5462            0.0000000000
     41302      5662  TIP3      H2             15.0912257071       27.8247100022       38.8074177359  TIP3      5462            0.0000000000
     41303      5663  TIP3      OH2             5.5004270196       35.2466223373       40.6575349612  TIP3      5463            0.0000000000
     41304      5663  TIP3      H1              6.4677740787       35.3311871130       40.7292456436  TIP3      5463            0.0000000000
     41305      5663  TIP3      H2              5.3553652140       35.8570733188       39.9223914970  TIP3      5463            0.0000000000
     41306      5664  TIP3      OH2            -0.9455262838       29.8181442833       40.1294927136  TIP3      5464            0.0000000000
     41307      5664  TIP3      H1              0.0218513349       29.9109690219       40.3104553568  TIP3      5464            0.0000000000
     41308      5664  TIP3      H2             -0.8933288445       29.1726458310       39.3846094613  TIP3      5464            0.0000000000
     41309      5665  TIP3      OH2            -2.1307422946       35.2352163510       45.0571731242  TIP3      5465            0.0000000000
     41310      5665  TIP3      H1             -2.8791947381       34.7508541691       44.6397945647  TIP3      5465            0.0000000000
     41311      5665  TIP3      H2             -1.8710651091       34.5818925260       45.7410089473  TIP3      5465            0.0000000000
     41312      5666  TIP3      OH2            -1.4030307804       33.3510119584       46.8898421278  TIP3      5466            0.0000000000
     41313      5666  TIP3      H1             -1.6684330850       32.4485962625       47.1284026162  TIP3      5466            0.0000000000
     41314      5666  TIP3      H2             -1.0618790976       33.6587673212       47.7708523255  TIP3      5466            0.0000000000
     41315      5667  TIP3      OH2            15.5309751694       27.7820593492       42.9533189044  TIP3      5467            0.0000000000
     41316      5667  TIP3      H1             16.3996708881       28.1745576884       43.1318751977  TIP3      5467            0.0000000000
     41317      5667  TIP3      H2             15.5292767913       27.0567440344       43.6053834972  TIP3      5467            0.0000000000
     41318      5668  TIP3      OH2            15.8988251000       25.8482595256       44.8162272052  TIP3      5468            0.0000000000
     41319      5668  TIP3      H1             15.1268552878       25.3964837018       45.1945227314  TIP3      5468            0.0000000000
     41320      5668  TIP3      H2             16.5154784568       26.0135240694       45.5658385834  TIP3      5468            0.0000000000
     41321      5669  TIP3      OH2            15.7476211310       28.7941388709       49.6641225603  TIP3      5469            0.0000000000
     41322      5669  TIP3      H1             16.5643356989       28.3035698520       49.4728652860  TIP3      5469            0.0000000000
     41323      5669  TIP3      H2             15.9337360731       29.7385452497       49.5772097741  TIP3      5469            0.0000000000
     41324      5670  TIP3      OH2            16.1982024171       25.6814153529       41.2269449100  TIP3      5470            0.0000000000
     41325      5670  TIP3      H1             15.6275761448       26.0205599275       40.5050977670  TIP3      5470            0.0000000000
     41326      5670  TIP3      H2             16.0949419255       26.3923664605       41.8870413799  TIP3      5470            0.0000000000
     41327      5671  TIP3      OH2            14.5721999462       22.9076778827       39.7453712803  TIP3      5471            0.0000000000
     41328      5671  TIP3      H1             14.6459884195       23.5731080129       39.0498855439  TIP3      5471            0.0000000000
     41329      5671  TIP3      H2             14.3839816259       22.0860367286       39.2481312110  TIP3      5471            0.0000000000
     41330      5672  TIP3      OH2            13.6734517780       24.3649422966       45.3194436429  TIP3      5472            0.0000000000
     41331      5672  TIP3      H1             13.4381962689       23.4226735459       45.1587992671  TIP3      5472            0.0000000000
     41332      5672  TIP3      H2             13.1704074968       24.6575827586       46.1019957951  TIP3      5472            0.0000000000
     41333      5673  TIP3      OH2            -1.2971755989       26.4900454670       49.3404372791  TIP3      5473            0.0000000000
     41334      5673  TIP3      H1             -1.0608840027       26.3230583100       48.4081294014  TIP3      5473            0.0000000000
     41335      5673  TIP3      H2             -0.4816681725       26.2585361002       49.8194798227  TIP3      5473            0.0000000000
     41336      5674  TIP3      OH2            13.8201059987       20.3850010184       38.8775012211  TIP3      5474            0.0000000000
     41337      5674  TIP3      H1             14.4070176671       19.9429675822       39.5196495689  TIP3      5474            0.0000000000
     41338      5674  TIP3      H2             12.9542810723       19.9662019750       39.0265393650  TIP3      5474            0.0000000000
     41339      5675  TIP3      OH2            13.3932746028       21.9407638361       43.9011493168  TIP3      5475            0.0000000000
     41340      5675  TIP3      H1             13.6640788819       20.9883902532       43.9590199277  TIP3      5475            0.0000000000
     41341      5675  TIP3      H2             14.1771075505       22.3012691205       43.4595879926  TIP3      5475            0.0000000000
     41342      5676  TIP3      OH2            14.0233343754       22.5785223500       48.9018644140  TIP3      5476            0.0000000000
     41343      5676  TIP3      H1             14.9743501810       22.5584700185       49.1705820273  TIP3      5476            0.0000000000
     41344      5676  TIP3      H2             13.6127674942       22.4756140905       49.7900930647  TIP3      5476            0.0000000000
     41345      5677  TIP3      OH2            14.0095922778       19.2323558701       43.9307028864  TIP3      5477            0.0000000000
     41346      5677  TIP3      H1             14.2674660204       18.7579154318       44.7547750892  TIP3      5477            0.0000000000
     41347      5677  TIP3      H2             13.4552310492       18.5726840596       43.4707822810  TIP3      5477            0.0000000000
     41348      5678  TIP3      OH2            -0.4871917026       20.0166129481       48.4642692106  TIP3      5478            0.0000000000
     41349      5678  TIP3      H1             -0.0359666348       19.1810524425       48.7089819946  TIP3      5478            0.0000000000
     41350      5678  TIP3      H2              0.0794244315       20.6822914668       48.8912624159  TIP3      5478            0.0000000000
     41351      5679  TIP3      OH2            -2.1872866838       22.9827628004       49.5173705536  TIP3      5479            0.0000000000
     41352      5679  TIP3      H1             -1.6521931780       22.7499769688       48.7269995166  TIP3      5479            0.0000000000
     41353      5679  TIP3      H2             -1.7438509027       23.8181572818       49.7455241112  TIP3      5479            0.0000000000
     41354      5680  TIP3      OH2            15.8732432405       19.2351147119       40.4629973659  TIP3      5480            0.0000000000
     41355      5680  TIP3      H1             16.2823267660       18.5211026991       39.9270557002  TIP3      5480            0.0000000000
     41356      5680  TIP3      H2             16.5836260910       19.8932382188       40.5098087951  TIP3      5480            0.0000000000
     41357      5681  TIP3      OH2            -1.8103713927       19.2676524046       43.5670564689  TIP3      5481            0.0000000000
     41358      5681  TIP3      H1             -2.7497773323       19.4633121286       43.4330764921  TIP3      5481            0.0000000000
     41359      5681  TIP3      H2             -1.3902470938       19.7657362657       42.8491673390  TIP3      5481            0.0000000000
     41360      5682  TIP3      OH2            12.9273303954       34.2143072793       45.5272012903  TIP3      5482            0.0000000000
     41361      5682  TIP3      H1             13.6050394534       33.9160975511       44.8910917551  TIP3      5482            0.0000000000
     41362      5682  TIP3      H2             13.4383490233       34.7498304137       46.1554792488  TIP3      5482            0.0000000000
     41363      5683  TIP3      OH2            -0.0537413798       33.8495342390       48.9858333883  TIP3      5483            0.0000000000
     41364      5683  TIP3      H1              0.0407032685       33.7361036832       49.9419847401  TIP3      5483            0.0000000000
     41365      5683  TIP3      H2              0.8842325685       33.6949834685       48.7544675442  TIP3      5483            0.0000000000
     41366      5684  TIP3      OH2             2.2078824606       32.7338584783       47.9123101149  TIP3      5484            0.0000000000
     41367      5684  TIP3      H1              2.0784250729       31.7827766234       48.0870677817  TIP3      5484            0.0000000000
     41368      5684  TIP3      H2              3.0722353821       32.8648250902       48.3513638684  TIP3      5484            0.0000000000
     41369      5685  TIP3      OH2             4.7693869755       33.2102548467       48.7619936743  TIP3      5485            0.0000000000
     41370      5685  TIP3      H1              4.9924727695       32.3042044107       48.4952021063  TIP3      5485            0.0000000000
     41371      5685  TIP3      H2              4.8368911308       33.1432563916       49.7182864038  TIP3      5485            0.0000000000
     41372      5686  TIP3      OH2             8.2924984097       18.9147400938       47.9015153171  TIP3      5486            0.0000000000
     41373      5686  TIP3      H1              7.6481336170       18.2612117866       48.2370424873  TIP3      5486            0.0000000000
     41374      5686  TIP3      H2              8.8626172383       18.3319944354       47.3837754482  TIP3      5486            0.0000000000
     41375      5687  TIP3      OH2            13.4418683049       16.9573797485       47.9857625985  TIP3      5487            0.0000000000
     41376      5687  TIP3      H1             14.0333724366       17.5455554140       47.4662403147  TIP3      5487            0.0000000000
     41377      5687  TIP3      H2             12.5457693666       17.2995260084       47.7911035501  TIP3      5487            0.0000000000
     41378      5688  TIP3      OH2            15.1015948559       18.1881119105       46.2551104126  TIP3      5488            0.0000000000
     41379      5688  TIP3      H1             15.7774221839       17.5887936592       45.8575936569  TIP3      5488            0.0000000000
     41380      5688  TIP3      H2             15.6201872289       19.0101657321       46.3505189940  TIP3      5488            0.0000000000
     41381      5689  TIP3      OH2             0.6704955943       17.4895361886       45.6978269208  TIP3      5489            0.0000000000
     41382      5689  TIP3      H1             -0.1425468035       17.2742544537       45.2114975671  TIP3      5489            0.0000000000
     41383      5689  TIP3      H2              1.1220381396       16.6245584899       45.7229939518  TIP3      5489            0.0000000000
     41384      5690  TIP3      OH2            -0.6138798860       17.2347541474       41.4601371451  TIP3      5490            0.0000000000
     41385      5690  TIP3      H1             -0.0797484645       17.8786047709       40.9592848088  TIP3      5490            0.0000000000
     41386      5690  TIP3      H2             -1.1189679577       17.8215471448       42.0432091238  TIP3      5490            0.0000000000
     41387      5691  TIP3      OH2             5.1352197405       17.3815845366       45.5586666516  TIP3      5491            0.0000000000
     41388      5691  TIP3      H1              6.0230475038       17.7695309317       45.4716368243  TIP3      5491            0.0000000000
     41389      5691  TIP3      H2              5.1027757866       17.1805596026       46.4946820174  TIP3      5491            0.0000000000
     41390      5692  TIP3      OH2            10.8612109836       17.4370700631       47.1536889503  TIP3      5492            0.0000000000
     41391      5692  TIP3      H1             10.8015236224       17.5470379735       46.2048738442  TIP3      5492            0.0000000000
     41392      5692  TIP3      H2             10.4525539579       16.5557829065       47.3147674031  TIP3      5492            0.0000000000
     41393      5693  TIP3      OH2            12.1150753040       17.4557422431       42.8621133575  TIP3      5493            0.0000000000
     41394      5693  TIP3      H1             11.3654717987       18.0497980910       42.7067294059  TIP3      5493            0.0000000000
     41395      5693  TIP3      H2             11.6749135056       16.6047221343       43.0997273874  TIP3      5493            0.0000000000
     41396      5694  TIP3      OH2            -0.6575251861       33.1745435755       42.5230234967  TIP3      5494            0.0000000000
     41397      5694  TIP3      H1             -1.3247471421       33.1722002949       41.8151927915  TIP3      5494            0.0000000000
     41398      5694  TIP3      H2             -0.6529521090       34.1267315216       42.7010269438  TIP3      5494            0.0000000000
     41399      5695  TIP3      OH2             1.2608672785       19.1892809091       39.9855050120  TIP3      5495            0.0000000000
     41400      5695  TIP3      H1              1.7917789980       18.5609128266       39.4707958922  TIP3      5495            0.0000000000
     41401      5695  TIP3      H2              1.9207548263       19.5021650232       40.6329647910  TIP3      5495            0.0000000000
     41402      5696  TIP3      OH2             6.2827239710       19.4213616091       42.4047139312  TIP3      5496            0.0000000000
     41403      5696  TIP3      H1              6.5384954428       18.8451480300       43.1432564017  TIP3      5496            0.0000000000
     41404      5696  TIP3      H2              6.3570939448       20.2885938267       42.8613578007  TIP3      5496            0.0000000000
     41405      5697  TIP3      OH2             8.2167176031       34.4920800675       40.8513732193  TIP3      5497            0.0000000000
     41406      5697  TIP3      H1              9.1373423919       34.7145317139       40.6348417649  TIP3      5497            0.0000000000
     41407      5697  TIP3      H2              7.9991519817       33.9732181741       40.0482219871  TIP3      5497            0.0000000000
     41408      5698  TIP3      OH2            14.9249258863       33.9924739739       43.5729910007  TIP3      5498            0.0000000000
     41409      5698  TIP3      H1             14.7220372098       33.2139719912       43.0021408316  TIP3      5498            0.0000000000
     41410      5698  TIP3      H2             14.8518896390       34.7341329232       42.9342736074  TIP3      5498            0.0000000000
     41411      5699  TIP3      OH2             1.1505947983       34.1908530620       39.4507438999  TIP3      5499            0.0000000000
     41412      5699  TIP3      H1              0.8900604889       34.4159254678       40.3566684007  TIP3      5499            0.0000000000
     41413      5699  TIP3      H2              1.9207473984       33.6100920978       39.6058407446  TIP3      5499            0.0000000000
     41414      5700  TIP3      OH2            28.6022763935       26.6085622419       45.6150599953  TIP3      5500            0.0000000000
     41415      5700  TIP3      H1             28.5867924826       27.5912135682       45.6269734053  TIP3      5500            0.0000000000
     41416      5700  TIP3      H2             27.8711047709       26.3898558091       45.0079181372  TIP3      5500            0.0000000000
     41417      5701  TIP3      OH2            27.4807786486       25.8764827929       49.1353426436  TIP3      5501            0.0000000000
     41418      5701  TIP3      H1             27.4092008550       25.2325714774       49.8623583963  TIP3      5501            0.0000000000
     41419      5701  TIP3      H2             27.1690929913       25.3946191640       48.3563313195  TIP3      5501            0.0000000000
     41420      5702  TIP3      OH2            31.0622098935       28.7861295621       47.3567063484  TIP3      5502            0.0000000000
     41421      5702  TIP3      H1             30.7134549061       28.0684947644       47.9149966517  TIP3      5502            0.0000000000
     41422      5702  TIP3      H2             31.1955271930       29.4759745379       48.0620895465  TIP3      5502            0.0000000000
     41423      5703  TIP3      OH2            20.7318221769       30.0714606602       49.0556647584  TIP3      5503            0.0000000000
     41424      5703  TIP3      H1             20.4296049757       29.1610685368       48.8668120717  TIP3      5503            0.0000000000
     41425      5703  TIP3      H2             21.6759670852       29.8442381387       49.2188577875  TIP3      5503            0.0000000000
     41426      5704  TIP3      OH2            17.3469417527       23.5366544471       44.7170019526  TIP3      5504            0.0000000000
     41427      5704  TIP3      H1             17.0061886315       24.4400994310       44.5619049407  TIP3      5504            0.0000000000
     41428      5704  TIP3      H2             16.8299101202       23.0226288990       44.0777025574  TIP3      5504            0.0000000000
     41429      5705  TIP3      OH2            18.0656396933       25.7662062293       46.7525303047  TIP3      5505            0.0000000000
     41430      5705  TIP3      H1             18.3718577397       24.9960475870       47.2656424863  TIP3      5505            0.0000000000
     41431      5705  TIP3      H2             18.8175445320       25.9046416385       46.1588797603  TIP3      5505            0.0000000000
     41432      5706  TIP3      OH2            28.2521810190       33.9808215713       47.6884275122  TIP3      5506            0.0000000000
     41433      5706  TIP3      H1             28.9131522962       33.3191541764       47.3659202546  TIP3      5506            0.0000000000
     41434      5706  TIP3      H2             28.0746622029       33.6482959590       48.5679021553  TIP3      5506            0.0000000000
     41435      5707  TIP3      OH2            25.8910930599       28.3370278375       49.5637317639  TIP3      5507            0.0000000000
     41436      5707  TIP3      H1             26.2291520049       27.6447652873       48.9732589883  TIP3      5507            0.0000000000
     41437      5707  TIP3      H2             26.6445718648       28.4053387286       50.1580003685  TIP3      5507            0.0000000000
     41438      5708  TIP3      OH2            29.0450245516       22.7429594981       49.8904087558  TIP3      5508            0.0000000000
     41439      5708  TIP3      H1             29.1616238299       21.7800705715       49.9034582471  TIP3      5508            0.0000000000
     41440      5708  TIP3      H2             28.9250389888       22.8908352550       48.9281584679  TIP3      5508            0.0000000000
     41441      5709  TIP3      OH2            22.1419910558       20.8234847211       47.1134613951  TIP3      5509            0.0000000000
     41442      5709  TIP3      H1             22.2238131205       21.6685743671       46.6362685647  TIP3      5509            0.0000000000
     41443      5709  TIP3      H2             21.7119647877       20.2493821488       46.4445053534  TIP3      5509            0.0000000000
     41444      5710  TIP3      OH2            29.8367158995       20.9257172877       45.4784583242  TIP3      5510            0.0000000000
     41445      5710  TIP3      H1             30.4762955548       20.5967370964       46.1569119409  TIP3      5510            0.0000000000
     41446      5710  TIP3      H2             30.4264265281       21.4960538223       44.9678611974  TIP3      5510            0.0000000000
     41447      5711  TIP3      OH2            18.6980310864       23.1816826018       47.8521946775  TIP3      5511            0.0000000000
     41448      5711  TIP3      H1             19.4097213249       22.6966519746       48.3259106864  TIP3      5511            0.0000000000
     41449      5711  TIP3      H2             18.9005558913       22.9125684674       46.9339734931  TIP3      5511            0.0000000000
     41450      5712  TIP3      OH2            23.9084059385       24.7751280530       47.1730356144  TIP3      5512            0.0000000000
     41451      5712  TIP3      H1             24.5808610459       24.1926205939       47.5710552774  TIP3      5512            0.0000000000
     41452      5712  TIP3      H2             23.3942831510       24.1346162016       46.6344923147  TIP3      5512            0.0000000000
     41453      5713  TIP3      OH2            28.3396533125       29.2238929390       44.7230059575  TIP3      5513            0.0000000000
     41454      5713  TIP3      H1             28.0038802884       28.9286793710       43.8706663129  TIP3      5513            0.0000000000
     41455      5713  TIP3      H2             28.0073807756       30.1493850591       44.8004984048  TIP3      5513            0.0000000000
     41456      5714  TIP3      OH2            31.6050805782       20.2569916454       47.4660857433  TIP3      5514            0.0000000000
     41457      5714  TIP3      H1             31.4344553859       19.5080799255       48.0523088512  TIP3      5514            0.0000000000
     41458      5714  TIP3      H2             32.2940935424       20.6942842026       48.0028200488  TIP3      5514            0.0000000000
     41459      5715  TIP3      OH2            20.5987563230       21.5903289644       49.1241441977  TIP3      5515            0.0000000000
     41460      5715  TIP3      H1             21.1624938953       22.2849875791       49.4664697355  TIP3      5515            0.0000000000
     41461      5715  TIP3      H2             21.1264444439       21.1735798945       48.4130356388  TIP3      5515            0.0000000000
     41462      5716  TIP3      OH2            18.0667828051       28.9900127493       43.0165641525  TIP3      5516            0.0000000000
     41463      5716  TIP3      H1             17.8173329583       29.3326760119       42.1417111886  TIP3      5516            0.0000000000
     41464      5716  TIP3      H2             18.1466374611       29.8184528378       43.5341858141  TIP3      5516            0.0000000000
     41465      5717  TIP3      OH2            31.7288926098       30.3753653030       49.2819627657  TIP3      5517            0.0000000000
     41466      5717  TIP3      H1             30.9396449992       30.4868012511       49.8542845620  TIP3      5517            0.0000000000
     41467      5717  TIP3      H2             32.0671796217       31.2601623503       49.4485923664  TIP3      5517            0.0000000000
     41468      5718  TIP3      OH2            25.0004454664       17.1036411941       48.6075599912  TIP3      5518            0.0000000000
     41469      5718  TIP3      H1             24.9043599319       16.1341614771       48.5656456835  TIP3      5518            0.0000000000
     41470      5718  TIP3      H2             24.1083522828       17.3897553602       48.8958427795  TIP3      5518            0.0000000000
     41471      5719  TIP3      OH2            29.9022252861       32.4574840122       46.3426485055  TIP3      5519            0.0000000000
     41472      5719  TIP3      H1             30.3555803925       31.7374373633       45.8529678053  TIP3      5519            0.0000000000
     41473      5719  TIP3      H2             30.3633248953       33.2554792155       45.9997139754  TIP3      5519            0.0000000000
     41474      5720  TIP3      OH2            31.1542760450       30.3996662313       44.9044302519  TIP3      5520            0.0000000000
     41475      5720  TIP3      H1             30.8420687227       29.6799587707       44.3399470243  TIP3      5520            0.0000000000
     41476      5720  TIP3      H2             31.1865220409       29.9233104032       45.7585261472  TIP3      5520            0.0000000000
     41477      5721  TIP3      OH2            27.3243926549       25.9897006714       43.1901835731  TIP3      5521            0.0000000000
     41478      5721  TIP3      H1             26.5227571439       26.3550317198       42.7741744811  TIP3      5521            0.0000000000
     41479      5721  TIP3      H2             27.9319392029       25.8971279818       42.4402342758  TIP3      5521            0.0000000000
     41480      5722  TIP3      OH2            27.8671856395       24.6449762192       39.8900867235  TIP3      5522            0.0000000000
     41481      5722  TIP3      H1             27.9739834107       24.3767349848       40.8163188367  TIP3      5522            0.0000000000
     41482      5722  TIP3      H2             27.5807447933       23.7668069356       39.6079891358  TIP3      5522            0.0000000000
     41483      5723  TIP3      OH2            30.7173396039       26.0847207003       44.0590723242  TIP3      5523            0.0000000000
     41484      5723  TIP3      H1             29.9631143849       26.3029236716       44.6652991384  TIP3      5523            0.0000000000
     41485      5723  TIP3      H2             31.1776741351       25.3950355448       44.5710441391  TIP3      5523            0.0000000000
     41486      5724  TIP3      OH2            22.2957374804       26.7133120063       45.9817469784  TIP3      5524            0.0000000000
     41487      5724  TIP3      H1             21.9874408369       26.3336654187       45.1231438766  TIP3      5524            0.0000000000
     41488      5724  TIP3      H2             22.9460090211       26.0434677969       46.2753007488  TIP3      5524            0.0000000000
     41489      5725  TIP3      OH2            23.7122970015       30.1774164261       48.6256575818  TIP3      5525            0.0000000000
     41490      5725  TIP3      H1             23.6385238230       29.6026946389       47.8516756143  TIP3      5525            0.0000000000
     41491      5725  TIP3      H2             24.4283756567       29.7480590644       49.1256549897  TIP3      5525            0.0000000000
     41492      5726  TIP3      OH2            22.5428721066       25.5566894640       49.4912649254  TIP3      5526            0.0000000000
     41493      5726  TIP3      H1             23.1800507826       25.6289361491       48.7634576141  TIP3      5526            0.0000000000
     41494      5726  TIP3      H2             22.9992528427       26.0198054925       50.2103928781  TIP3      5526            0.0000000000
     41495      5727  TIP3      OH2            29.5950568722       25.4025606301       41.7840903453  TIP3      5527            0.0000000000
     41496      5727  TIP3      H1             30.1911197480       25.4218434888       42.5742882108  TIP3      5527            0.0000000000
     41497      5727  TIP3      H2             30.0868513176       25.6520956014       40.9821336658  TIP3      5527            0.0000000000
     41498      5728  TIP3      OH2            27.2932103169       31.9790676492       45.1862218698  TIP3      5528            0.0000000000
     41499      5728  TIP3      H1             27.7301136090       32.2972780550       45.9851559103  TIP3      5528            0.0000000000
     41500      5728  TIP3      H2             26.7414009994       32.7345349025       44.9476385934  TIP3      5528            0.0000000000
     41501      5729  TIP3      OH2            33.3190830309       16.9984677780       41.6355822259  TIP3      5529            0.0000000000
     41502      5729  TIP3      H1             32.3773348869       17.1213176172       41.8775080502  TIP3      5529            0.0000000000
     41503      5729  TIP3      H2             33.5180647716       17.8406582404       41.1908668630  TIP3      5529            0.0000000000
     41504      5730  TIP3      OH2            21.2443795474       25.7693530593       43.6566515043  TIP3      5530            0.0000000000
     41505      5730  TIP3      H1             21.0278146469       26.5216290504       43.0708768866  TIP3      5530            0.0000000000
     41506      5730  TIP3      H2             20.6596624006       25.0747210434       43.3503201488  TIP3      5530            0.0000000000
     41507      5731  TIP3      OH2            34.4170648289       31.3344205905       39.9978131541  TIP3      5531            0.0000000000
     41508      5731  TIP3      H1             34.5744260162       32.2841794405       40.1496227901  TIP3      5531            0.0000000000
     41509      5731  TIP3      H2             35.3512796528       31.0439014717       39.9695970839  TIP3      5531            0.0000000000
     41510      5732  TIP3      OH2            17.2102112250       31.0899329959       49.0745556332  TIP3      5532            0.0000000000
     41511      5732  TIP3      H1             18.1132455245       30.8062787813       49.2615798555  TIP3      5532            0.0000000000
     41512      5732  TIP3      H2             17.0320325137       31.7587043587       49.7402867100  TIP3      5532            0.0000000000
     41513      5733  TIP3      OH2            26.7681220370       34.8955071771       43.6083811310  TIP3      5533            0.0000000000
     41514      5733  TIP3      H1             26.6616457251       34.8261078439       42.6437845117  TIP3      5533            0.0000000000
     41515      5733  TIP3      H2             26.7696927548       35.8577256446       43.7638593154  TIP3      5533            0.0000000000
     41516      5734  TIP3      OH2            20.4363383144       33.7651009712       45.4121823341  TIP3      5534            0.0000000000
     41517      5734  TIP3      H1             20.5762066412       33.3643607217       46.2973449445  TIP3      5534            0.0000000000
     41518      5734  TIP3      H2             19.5734624065       33.3773841208       45.1950726404  TIP3      5534            0.0000000000
     41519      5735  TIP3      OH2            29.8309515134       34.1380696989       40.5853957998  TIP3      5535            0.0000000000
     41520      5735  TIP3      H1             30.2931680374       33.3850518039       40.1556122785  TIP3      5535            0.0000000000
     41521      5735  TIP3      H2             29.8733129023       33.8773631095       41.5347254046  TIP3      5535            0.0000000000
     41522      5736  TIP3      OH2            29.5343151209       34.0501613903       43.3502667838  TIP3      5536            0.0000000000
     41523      5736  TIP3      H1             28.5796800689       34.1407805372       43.5505501992  TIP3      5536            0.0000000000
     41524      5736  TIP3      H2             29.7642891688       33.3189512691       43.9453930798  TIP3      5536            0.0000000000
     41525      5737  TIP3      OH2            22.3305160068       17.9441357985       49.4205443210  TIP3      5537            0.0000000000
     41526      5737  TIP3      H1             21.4640332235       17.8292892161       48.9691615644  TIP3      5537            0.0000000000
     41527      5737  TIP3      H2             22.2496313187       18.8123624872       49.8187750580  TIP3      5537            0.0000000000
     41528      5738  TIP3      OH2            31.0418696360       26.3886203592       39.5446253893  TIP3      5538            0.0000000000
     41529      5738  TIP3      H1             30.9813722572       26.0751453296       38.6009684789  TIP3      5538            0.0000000000
     41530      5738  TIP3      H2             31.9772586846       26.6789026321       39.5235646303  TIP3      5538            0.0000000000
     41531      5739  TIP3      OH2            26.6801787294       20.1860636944       40.0346703354  TIP3      5539            0.0000000000
     41532      5739  TIP3      H1             26.3325068069       20.2361354201       40.9486930474  TIP3      5539            0.0000000000
     41533      5739  TIP3      H2             26.3100571747       19.3439622956       39.7577883564  TIP3      5539            0.0000000000
     41534      5740  TIP3      OH2            22.3958823088       23.0617218082       45.4929438643  TIP3      5540            0.0000000000
     41535      5740  TIP3      H1             21.4670094399       22.7986479311       45.3474165979  TIP3      5540            0.0000000000
     41536      5740  TIP3      H2             22.7914171933       22.7894733642       44.6299836185  TIP3      5540            0.0000000000
     41537      5741  TIP3      OH2            27.9301589724       23.5930356603       44.2786047919  TIP3      5541            0.0000000000
     41538      5741  TIP3      H1             27.4951464865       24.3758027325       43.8848731393  TIP3      5541            0.0000000000
     41539      5741  TIP3      H2             28.5912276767       23.3754992791       43.6045780910  TIP3      5541            0.0000000000
     41540      5742  TIP3      OH2            28.9396589025       23.0411488002       47.1187511613  TIP3      5542            0.0000000000
     41541      5742  TIP3      H1             28.7011340276       23.6196406443       46.3677632001  TIP3      5542            0.0000000000
     41542      5742  TIP3      H2             29.0754109869       22.2060214267       46.6213246793  TIP3      5542            0.0000000000
     41543      5743  TIP3      OH2            23.4362237163       20.5241413490       39.1411156721  TIP3      5543            0.0000000000
     41544      5743  TIP3      H1             22.9923597751       20.2085556841       39.9476989110  TIP3      5543            0.0000000000
     41545      5743  TIP3      H2             22.7358424237       21.0094021951       38.6829809600  TIP3      5543            0.0000000000
     41546      5744  TIP3      OH2            16.7155377941       20.3832645695       46.2547785361  TIP3      5544            0.0000000000
     41547      5744  TIP3      H1             17.3816804888       20.2848708786       46.9709243077  TIP3      5544            0.0000000000
     41548      5744  TIP3      H2             17.1571960063       19.9129996303       45.5159971860  TIP3      5544            0.0000000000
     41549      5745  TIP3      OH2            17.9907885708       21.0198692502       41.6466089409  TIP3      5545            0.0000000000
     41550      5745  TIP3      H1             18.5056315757       21.6310955993       41.0873992692  TIP3      5545            0.0000000000
     41551      5745  TIP3      H2             17.3111917651       21.6372872354       41.9877458079  TIP3      5545            0.0000000000
     41552      5746  TIP3      OH2            24.9652166803       20.6609971667       46.5283736617  TIP3      5546            0.0000000000
     41553      5746  TIP3      H1             24.0322194325       20.6129025084       46.8098484144  TIP3      5546            0.0000000000
     41554      5746  TIP3      H2             25.4633151199       20.4451302332       47.3256748690  TIP3      5546            0.0000000000
     41555      5747  TIP3      OH2            19.7722954917       22.1724275263       45.3685551484  TIP3      5547            0.0000000000
     41556      5747  TIP3      H1             18.8916711887       22.3146200937       44.9725305250  TIP3      5547            0.0000000000
     41557      5747  TIP3      H2             20.0596561065       21.3330808064       44.9684857313  TIP3      5547            0.0000000000
     41558      5748  TIP3      OH2            23.3871138552       22.2225799326       43.0638055339  TIP3      5548            0.0000000000
     41559      5748  TIP3      H1             24.3634399854       22.3256273963       43.1132702693  TIP3      5548            0.0000000000
     41560      5748  TIP3      H2             23.2177675134       22.8688573278       42.3487387447  TIP3      5548            0.0000000000
     41561      5749  TIP3      OH2            29.3732934517       19.8011136876       49.5944266504  TIP3      5549            0.0000000000
     41562      5749  TIP3      H1             28.7752718615       19.8968091722       50.3542617698  TIP3      5549            0.0000000000
     41563      5749  TIP3      H2             28.7600847752       19.5799530394       48.8949833139  TIP3      5549            0.0000000000
     41564      5750  TIP3      OH2            22.0908998023       23.3951763258       40.5835475861  TIP3      5550            0.0000000000
     41565      5750  TIP3      H1             21.5879587339       23.0028716913       39.8576818326  TIP3      5550            0.0000000000
     41566      5750  TIP3      H2             22.9351203982       23.5946583999       40.1436466900  TIP3      5550            0.0000000000
     41567      5751  TIP3      OH2            26.2051974024       23.3293125317       48.3955410696  TIP3      5551            0.0000000000
     41568      5751  TIP3      H1             26.8414530822       22.8458839268       47.8417401773  TIP3      5551            0.0000000000
     41569      5751  TIP3      H2             26.1465342355       22.7801249416       49.1848731400  TIP3      5551            0.0000000000
     41570      5752  TIP3      OH2            21.2682627767       19.5118835397       44.8404538486  TIP3      5552            0.0000000000
     41571      5752  TIP3      H1             20.9152476285       18.5994020817       44.8433713250  TIP3      5552            0.0000000000
     41572      5752  TIP3      H2             22.0462952970       19.4585737421       44.2751442547  TIP3      5552            0.0000000000
     41573      5753  TIP3      OH2            25.4907091971       27.9551461580       42.4949465741  TIP3      5553            0.0000000000
     41574      5753  TIP3      H1             24.7012480679       27.4518714381       42.1676696191  TIP3      5553            0.0000000000
     41575      5753  TIP3      H2             25.2613934686       28.0260368312       43.4440806714  TIP3      5553            0.0000000000
     41576      5754  TIP3      OH2            29.3148648149       20.7494387747       40.6761241004  TIP3      5554            0.0000000000
     41577      5754  TIP3      H1             28.3545667335       20.8955038627       40.5528636415  TIP3      5554            0.0000000000
     41578      5754  TIP3      H2             29.6284980011       21.6035687364       41.0353623936  TIP3      5554            0.0000000000
     41579      5755  TIP3      OH2            30.0488156054       22.6707212435       42.3094461022  TIP3      5555            0.0000000000
     41580      5755  TIP3      H1             30.9289313381       22.5239306210       42.7154245855  TIP3      5555            0.0000000000
     41581      5755  TIP3      H2             30.1299296746       23.4740075220       41.7832561781  TIP3      5555            0.0000000000
     41582      5756  TIP3      OH2            20.4822995956       27.2638444528       48.2598760706  TIP3      5556            0.0000000000
     41583      5756  TIP3      H1             21.2394674147       27.2480613624       47.6486435375  TIP3      5556            0.0000000000
     41584      5756  TIP3      H2             20.6624985926       26.4569288122       48.7586201732  TIP3      5556            0.0000000000
     41585      5757  TIP3      OH2            27.6077743358       29.3398999352       41.5522589172  TIP3      5557            0.0000000000
     41586      5757  TIP3      H1             27.2389678793       30.1975204019       41.8759505840  TIP3      5557            0.0000000000
     41587      5757  TIP3      H2             26.8357668326       28.7544689821       41.7579511268  TIP3      5557            0.0000000000
     41588      5758  TIP3      OH2            34.9427987850       22.7896632814       42.0931427965  TIP3      5558            0.0000000000
     41589      5758  TIP3      H1             34.3759302286       22.5002389625       41.3535718536  TIP3      5558            0.0000000000
     41590      5758  TIP3      H2             35.0047866086       23.7392148338       41.8313177833  TIP3      5558            0.0000000000
     41591      5759  TIP3      OH2            33.1757968199       31.6268214773       42.4690631809  TIP3      5559            0.0000000000
     41592      5759  TIP3      H1             32.8967872541       30.7906616069       42.8580545198  TIP3      5559            0.0000000000
     41593      5759  TIP3      H2             33.5921063965       31.4114103699       41.6161827326  TIP3      5559            0.0000000000
     41594      5760  TIP3      OH2            30.1237364297       26.5144772053       48.8881210589  TIP3      5560            0.0000000000
     41595      5760  TIP3      H1             29.3519157045       26.2982336930       49.4504244624  TIP3      5560            0.0000000000
     41596      5760  TIP3      H2             30.6363516752       25.6804437462       48.8651673709  TIP3      5560            0.0000000000
     41597      5761  TIP3      OH2            22.9541994039       30.7738159213       45.7130382694  TIP3      5561            0.0000000000
     41598      5761  TIP3      H1             23.4546899787       31.5778339005       45.5026067571  TIP3      5561            0.0000000000
     41599      5761  TIP3      H2             22.0801253393       30.9988168943       45.3669485145  TIP3      5561            0.0000000000
     41600      5762  TIP3      OH2            18.7304666723       25.6081448194       40.2659407222  TIP3      5562            0.0000000000
     41601      5762  TIP3      H1             19.3041381808       26.2782362005       40.6762601832  TIP3      5562            0.0000000000
     41602      5762  TIP3      H2             17.8361851395       25.9207709186       40.5119580382  TIP3      5562            0.0000000000
     41603      5763  TIP3      OH2            24.3609428728       28.4457992732       45.1932885547  TIP3      5563            0.0000000000
     41604      5763  TIP3      H1             24.0543943371       29.3616275096       45.3177388283  TIP3      5563            0.0000000000
     41605      5763  TIP3      H2             23.6464709188       27.9529302842       45.6356518425  TIP3      5563            0.0000000000
     41606      5764  TIP3      OH2            23.0508127340       33.4487774987       44.7271181550  TIP3      5564            0.0000000000
     41607      5764  TIP3      H1             22.0860485145       33.5579875678       44.8809214116  TIP3      5564            0.0000000000
     41608      5764  TIP3      H2             23.4113340623       34.2753073462       45.1034547720  TIP3      5564            0.0000000000
     41609      5765  TIP3      OH2            30.7201674063       29.9256667272       40.2087275512  TIP3      5565            0.0000000000
     41610      5765  TIP3      H1             31.1283813226       29.7427269860       41.0659983787  TIP3      5565            0.0000000000
     41611      5765  TIP3      H2             29.7518157643       29.8329077610       40.3275297532  TIP3      5565            0.0000000000
     41612      5766  TIP3      OH2            35.1270029865       34.0271667496       40.6131686834  TIP3      5566            0.0000000000
     41613      5766  TIP3      H1             35.8140288377       34.6704687953       40.3589660142  TIP3      5566            0.0000000000
     41614      5766  TIP3      H2             34.4078951389       34.6560702208       40.8625274752  TIP3      5566            0.0000000000
     41615      5767  TIP3      OH2            31.4967918788       28.3313709460       42.6280482741  TIP3      5567            0.0000000000
     41616      5767  TIP3      H1             31.2689264919       27.5680642291       43.2196174557  TIP3      5567            0.0000000000
     41617      5767  TIP3      H2             32.4593399116       28.3819522959       42.8186809672  TIP3      5567            0.0000000000
     41618      5768  TIP3      OH2            24.8229371138       30.7744007903       38.8303010846  TIP3      5568            0.0000000000
     41619      5768  TIP3      H1             24.9055503710       30.0083675223       38.2358971727  TIP3      5568            0.0000000000
     41620      5768  TIP3      H2             24.3679660542       30.3381690652       39.5864161705  TIP3      5568            0.0000000000
     41621      5769  TIP3      OH2            23.5833003996       30.3061022256       41.2822073276  TIP3      5569            0.0000000000
     41622      5769  TIP3      H1             23.8543158416       29.7845815217       42.0481063822  TIP3      5569            0.0000000000
     41623      5769  TIP3      H2             23.6737710803       31.2295323074       41.6091019302  TIP3      5569            0.0000000000
     41624      5770  TIP3      OH2            20.1226288208       27.5407069300       41.7621644446  TIP3      5570            0.0000000000
     41625      5770  TIP3      H1             19.4107778689       27.9396443132       42.3049340923  TIP3      5570            0.0000000000
     41626      5770  TIP3      H2             20.6288261384       28.3202630383       41.4698669731  TIP3      5570            0.0000000000
     41627      5771  TIP3      OH2            28.7370526772       19.7583677266       43.1692558922  TIP3      5571            0.0000000000
     41628      5771  TIP3      H1             28.9057433627       20.2740901153       42.3564620390  TIP3      5571            0.0000000000
     41629      5771  TIP3      H2             29.2698755948       20.2406172574       43.8134677236  TIP3      5571            0.0000000000
     41630      5772  TIP3      OH2            26.4115610861       31.9337380710       41.9521113873  TIP3      5572            0.0000000000
     41631      5772  TIP3      H1             25.5902509233       32.4614074221       42.0536922316  TIP3      5572            0.0000000000
     41632      5772  TIP3      H2             26.9263186705       32.5257880264       41.3871589187  TIP3      5572            0.0000000000
     41633      5773  TIP3      OH2            25.9534716209       21.4905722309       43.9961371504  TIP3      5573            0.0000000000
     41634      5773  TIP3      H1             26.6837407037       22.1420410329       44.0109651232  TIP3      5573            0.0000000000
     41635      5773  TIP3      H2             25.6506443591       21.4338441519       44.9160098795  TIP3      5573            0.0000000000
     41636      5774  TIP3      OH2            26.7655180079       18.6085714156       44.8484923362  TIP3      5574            0.0000000000
     41637      5774  TIP3      H1             26.4732350120       19.2459316074       45.5306127887  TIP3      5574            0.0000000000
     41638      5774  TIP3      H2             27.4607847494       19.1619248584       44.4143917525  TIP3      5574            0.0000000000
     41639      5775  TIP3      OH2            23.7938718020       32.9938788315       42.0046217020  TIP3      5575            0.0000000000
     41640      5775  TIP3      H1             23.8789922298       33.8113466517       41.4522113750  TIP3      5575            0.0000000000
     41641      5775  TIP3      H2             23.5183564923       33.3573187459       42.8754755266  TIP3      5575            0.0000000000
     41642      5776  TIP3      OH2            22.4269981412       19.7166735750       41.5901261866  TIP3      5576            0.0000000000
     41643      5776  TIP3      H1             22.3843412908       20.6321983962       41.9440146137  TIP3      5576            0.0000000000
     41644      5776  TIP3      H2             23.3589915668       19.5333242356       41.8388881194  TIP3      5576            0.0000000000
     41645      5777  TIP3      OH2            31.2464344721       24.2858437211       47.9634744323  TIP3      5577            0.0000000000
     41646      5777  TIP3      H1             30.4264183986       23.7952194007       47.7644636979  TIP3      5577            0.0000000000
     41647      5777  TIP3      H2             31.7361170531       23.5955318790       48.4684669846  TIP3      5577            0.0000000000
     41648      5778  TIP3      OH2            20.6725760512       30.1444981771       40.6184977464  TIP3      5578            0.0000000000
     41649      5778  TIP3      H1             21.3405615844       30.7728209739       40.9374543593  TIP3      5578            0.0000000000
     41650      5778  TIP3      H2             21.1992322695       29.6708131587       39.9409035747  TIP3      5578            0.0000000000
     41651      5779  TIP3      OH2            19.0114323777       22.8256472694       39.7728214377  TIP3      5579            0.0000000000
     41652      5779  TIP3      H1             19.0302902668       23.7840433440       39.9754559029  TIP3      5579            0.0000000000
     41653      5779  TIP3      H2             18.1202904375       22.6538868826       39.4587086368  TIP3      5579            0.0000000000
     41654      5780  TIP3      OH2            32.6327991187       33.7247164578       49.5911766796  TIP3      5580            0.0000000000
     41655      5780  TIP3      H1             32.4413850271       34.3800943844       48.8808075190  TIP3      5580            0.0000000000
     41656      5780  TIP3      H2             33.5708571749       33.7550987827       49.7403527639  TIP3      5580            0.0000000000
     41657      5781  TIP3      OH2            19.8237197105       17.6039465206       48.4528909090  TIP3      5581            0.0000000000
     41658      5781  TIP3      H1             19.6102734414       17.6320658247       47.5035033585  TIP3      5581            0.0000000000
     41659      5781  TIP3      H2             19.4499223048       16.7631075230       48.7516299890  TIP3      5581            0.0000000000
     41660      5782  TIP3      OH2            18.7795141421       31.5343218029       44.6587319038  TIP3      5582            0.0000000000
     41661      5782  TIP3      H1             17.9297620089       31.9909499476       44.5942802121  TIP3      5582            0.0000000000
     41662      5782  TIP3      H2             19.2627299162       31.9953467408       43.9591260642  TIP3      5582            0.0000000000
     41663      5783  TIP3      OH2            26.8014507318       32.6279417578       38.9531572769  TIP3      5583            0.0000000000
     41664      5783  TIP3      H1             26.1102991744       31.9641188798       39.1730369076  TIP3      5583            0.0000000000
     41665      5783  TIP3      H2             27.5177582859       32.0376141271       38.6885560269  TIP3      5583            0.0000000000
     41666      5784  TIP3      OH2            31.3679918753       32.3698072630       39.1285239230  TIP3      5584            0.0000000000
     41667      5784  TIP3      H1             31.6690771870       31.5957017814       39.6287291720  TIP3      5584            0.0000000000
     41668      5784  TIP3      H2             32.1300433580       32.6142053296       38.5823560926  TIP3      5584            0.0000000000
     41669      5785  TIP3      OH2            22.2594456519       28.2989252121       38.9659314759  TIP3      5585            0.0000000000
     41670      5785  TIP3      H1             22.3941061124       27.5282511197       39.5434532144  TIP3      5585            0.0000000000
     41671      5785  TIP3      H2             23.0030531387       28.1761667745       38.3428164208  TIP3      5585            0.0000000000
     41672      5786  TIP3      OH2            27.7630316796       29.3788243610       38.7647027323  TIP3      5586            0.0000000000
     41673      5786  TIP3      H1             27.3429435242       29.5187704599       39.6288258937  TIP3      5586            0.0000000000
     41674      5786  TIP3      H2             27.4683504987       28.4499913842       38.5814039355  TIP3      5586            0.0000000000
     41675      5787  TIP3      OH2            23.4408311783       26.3450304321       41.4012080919  TIP3      5587            0.0000000000
     41676      5787  TIP3      H1             22.9806939680       25.7554149479       42.0107957288  TIP3      5587            0.0000000000
     41677      5787  TIP3      H2             23.7567273296       25.6818972098       40.7334910424  TIP3      5587            0.0000000000
     41678      5788  TIP3      OH2            24.1850749955       24.9366118055       39.2308420198  TIP3      5588            0.0000000000
     41679      5788  TIP3      H1             24.2060371134       24.3466288732       38.4683042910  TIP3      5588            0.0000000000
     41680      5788  TIP3      H2             25.1113389170       24.8594378329       39.5231666358  TIP3      5588            0.0000000000
     41681      5789  TIP3      OH2            33.7941916936       26.8706880792       38.9989159496  TIP3      5589            0.0000000000
     41682      5789  TIP3      H1             33.6916404418       26.4804955667       38.1129822501  TIP3      5589            0.0000000000
     41683      5789  TIP3      H2             33.9696701170       27.8200057078       38.7942388301  TIP3      5589            0.0000000000
     41684      5790  TIP3      OH2            24.3543486747       35.2478393682       40.6578887246  TIP3      5590            0.0000000000
     41685      5790  TIP3      H1             25.3230157907       35.3300337948       40.7291142364  TIP3      5590            0.0000000000
     41686      5790  TIP3      H2             24.2115210485       35.8573751931       39.9218537260  TIP3      5590            0.0000000000
     41687      5791  TIP3      OH2            17.9121460093       29.8156677137       40.1319948696  TIP3      5591            0.0000000000
     41688      5791  TIP3      H1             18.8793460871       29.9107197734       40.3105657089  TIP3      5591            0.0000000000
     41689      5791  TIP3      H2             17.9620998407       29.1737684855       39.3839818021  TIP3      5591            0.0000000000
     41690      5792  TIP3      OH2            16.7293053308       35.2374043774       45.0602640318  TIP3      5592            0.0000000000
     41691      5792  TIP3      H1             15.9816778493       34.7529454296       44.6379765675  TIP3      5592            0.0000000000
     41692      5792  TIP3      H2             16.9854192345       34.5807852491       45.7412904899  TIP3      5592            0.0000000000
     41693      5793  TIP3      OH2            17.4503030315       33.3503497847       46.8909901435  TIP3      5593            0.0000000000
     41694      5793  TIP3      H1             17.1865297617       32.4469012046       47.1271468990  TIP3      5593            0.0000000000
     41695      5793  TIP3      H2             17.7927377046       33.6558379455       47.7698867435  TIP3      5593            0.0000000000
     41696      5794  TIP3      OH2            34.3248350510       27.7975527699       42.9658136588  TIP3      5594            0.0000000000
     41697      5794  TIP3      H1             35.2119238858       28.1701962108       43.1237725290  TIP3      5594            0.0000000000
     41698      5794  TIP3      H2             34.3740583233       27.0562379795       43.6104010666  TIP3      5594            0.0000000000
     41699      5795  TIP3      OH2            34.7619450665       25.8482024295       44.8082407927  TIP3      5595            0.0000000000
     41700      5795  TIP3      H1             34.0144008508       25.3568401055       45.2156103366  TIP3      5595            0.0000000000
     41701      5795  TIP3      H2             35.3646044676       25.9878229271       45.5673578275  TIP3      5595            0.0000000000
     41702      5796  TIP3      OH2            34.6248597967       28.8084305746       49.7325703407  TIP3      5596            0.0000000000
     41703      5796  TIP3      H1             35.3874472269       28.2760214588       49.4310044736  TIP3      5596            0.0000000000
     41704      5796  TIP3      H2             34.7885255923       29.7327928413       49.5116304720  TIP3      5596            0.0000000000
     41705      5797  TIP3      OH2            35.0272917236       25.6778651924       41.2352355276  TIP3      5597            0.0000000000
     41706      5797  TIP3      H1             34.5031937547       26.0370490069       40.4962629321  TIP3      5597            0.0000000000
     41707      5797  TIP3      H2             34.9934660565       26.4071442845       41.8790820785  TIP3      5597            0.0000000000
     41708      5798  TIP3      OH2            33.4493835898       22.8997721305       39.7416734117  TIP3      5598            0.0000000000
     41709      5798  TIP3      H1             33.5082728601       23.5582797843       39.0394054833  TIP3      5598            0.0000000000
     41710      5798  TIP3      H2             33.2292776990       22.0825430355       39.2534298349  TIP3      5598            0.0000000000
     41711      5799  TIP3      OH2            32.5752128009       24.3168445509       45.4333723373  TIP3      5599            0.0000000000
     41712      5799  TIP3      H1             32.4198792438       23.3613555015       45.3834550230  TIP3      5599            0.0000000000
     41713      5799  TIP3      H2             32.2176871877       24.5262418078       46.3167646148  TIP3      5599            0.0000000000
     41714      5800  TIP3      OH2            17.5334861409       26.4261884408       49.3202055487  TIP3      5600            0.0000000000
     41715      5800  TIP3      H1             17.8222155575       26.3388307719       48.3945654279  TIP3      5600            0.0000000000
     41716      5800  TIP3      H2             18.3609450557       26.2746216319       49.8205165666  TIP3      5600            0.0000000000
     41717      5801  TIP3      OH2            32.6589378733       20.3765003434       38.8836063875  TIP3      5601            0.0000000000
     41718      5801  TIP3      H1             33.2537304870       19.9379626657       39.5187864427  TIP3      5601            0.0000000000
     41719      5801  TIP3      H2             31.7962484021       19.9611817272       39.0346334143  TIP3      5601            0.0000000000
     41720      5802  TIP3      OH2            32.2143627015       21.9083416895       43.8061173260  TIP3      5602            0.0000000000
     41721      5802  TIP3      H1             32.5290272124       20.9911152755       43.9817146826  TIP3      5602            0.0000000000
     41722      5802  TIP3      H2             33.0469284275       22.3138666827       43.5287150838  TIP3      5602            0.0000000000
     41723      5803  TIP3      OH2            32.8485997083       22.5762363606       48.8672402149  TIP3      5603            0.0000000000
     41724      5803  TIP3      H1             33.8079901676       22.6032876276       49.0664393123  TIP3      5603            0.0000000000
     41725      5803  TIP3      H2             32.4837481171       22.5039185741       49.7777293479  TIP3      5603            0.0000000000
     41726      5804  TIP3      OH2            32.8786994526       19.2025616261       43.9053329377  TIP3      5604            0.0000000000
     41727      5804  TIP3      H1             33.1167515140       18.7701437004       44.7578496700  TIP3      5604            0.0000000000
     41728      5804  TIP3      H2             32.2988785015       18.5484604748       43.4690255936  TIP3      5604            0.0000000000
     41729      5805  TIP3      OH2            18.3416885354       20.0343760655       48.4886330285  TIP3      5605            0.0000000000
     41730      5805  TIP3      H1             18.7975452757       19.1924072004       48.6959119207  TIP3      5605            0.0000000000
     41731      5805  TIP3      H2             18.9518190851       20.6773788218       48.8945966597  TIP3      5605            0.0000000000
     41732      5806  TIP3      OH2            16.6135709014       23.0408959887       49.4426925532  TIP3      5606            0.0000000000
     41733      5806  TIP3      H1             17.2544862981       22.7399223851       48.7570399651  TIP3      5606            0.0000000000
     41734      5806  TIP3      H2             17.1260321356       23.8086136024       49.7705747525  TIP3      5606            0.0000000000
     41735      5807  TIP3      OH2            34.7116830179       19.2262099004       40.4738459092  TIP3      5607            0.0000000000
     41736      5807  TIP3      H1             35.1182908670       18.5193519173       39.9251438137  TIP3      5607            0.0000000000
     41737      5807  TIP3      H2             35.4078171797       19.8978756161       40.5044729633  TIP3      5607            0.0000000000
     41738      5808  TIP3      OH2            17.0463139348       19.2815968886       43.5866257386  TIP3      5608            0.0000000000
     41739      5808  TIP3      H1             16.1077292390       19.4261953689       43.4046641871  TIP3      5608            0.0000000000
     41740      5808  TIP3      H2             17.4708791357       19.7570035670       42.8544161790  TIP3      5608            0.0000000000
     41741      5809  TIP3      OH2            31.7868608380       34.2180799659       45.5276753997  TIP3      5609            0.0000000000
     41742      5809  TIP3      H1             32.4651186992       33.9210103923       44.8944911140  TIP3      5609            0.0000000000
     41743      5809  TIP3      H2             32.2961977709       34.7518995514       46.1585330098  TIP3      5609            0.0000000000
     41744      5810  TIP3      OH2            18.8036352813       33.8529537603       48.9865481421  TIP3      5610            0.0000000000
     41745      5810  TIP3      H1             18.8966534952       33.7336949640       49.9414846049  TIP3      5610            0.0000000000
     41746      5810  TIP3      H2             19.7403095218       33.6937098403       48.7530689453  TIP3      5610            0.0000000000
     41747      5811  TIP3      OH2            21.0639334566       32.7336190358       47.9128654372  TIP3      5611            0.0000000000
     41748      5811  TIP3      H1             20.9338482538       31.7826656826       48.0868123548  TIP3      5611            0.0000000000
     41749      5811  TIP3      H2             21.9308974633       32.8589191601       48.3478944233  TIP3      5611            0.0000000000
     41750      5812  TIP3      OH2            23.6256109002       33.2100909611       48.7620982480  TIP3      5612            0.0000000000
     41751      5812  TIP3      H1             23.8483972489       32.3042410328       48.4949534693  TIP3      5612            0.0000000000
     41752      5812  TIP3      H2             23.6925267266       33.1376641548       49.7177494288  TIP3      5612            0.0000000000
     41753      5813  TIP3      OH2            27.1390247151       18.9069546443       47.8844705435  TIP3      5613            0.0000000000
     41754      5813  TIP3      H1             26.4982812326       18.2527003306       48.2270552165  TIP3      5613            0.0000000000
     41755      5813  TIP3      H2             27.7216846905       18.3255901438       47.3819120376  TIP3      5613            0.0000000000
     41756      5814  TIP3      OH2            32.2947227238       16.9558544631       47.9843429689  TIP3      5614            0.0000000000
     41757      5814  TIP3      H1             32.8898235968       17.5425886003       47.4675451995  TIP3      5614            0.0000000000
     41758      5814  TIP3      H2             31.4001595373       17.3028408792       47.7902721156  TIP3      5614            0.0000000000
     41759      5815  TIP3      OH2            33.9689460563       18.1692426904       46.2661087401  TIP3      5615            0.0000000000
     41760      5815  TIP3      H1             34.6352026924       17.5800002974       45.8440092898  TIP3      5615            0.0000000000
     41761      5815  TIP3      H2             34.4725319873       19.0097405010       46.3615516103  TIP3      5615            0.0000000000
     41762      5816  TIP3      OH2            19.5098358195       17.5899961217       45.6718289546  TIP3      5616            0.0000000000
     41763      5816  TIP3      H1             18.6937204955       17.3005308935       45.2304224701  TIP3      5616            0.0000000000
     41764      5816  TIP3      H2             19.9347299918       16.7038537684       45.7778755666  TIP3      5616            0.0000000000
     41765      5817  TIP3      OH2            18.3185379055       17.2619163594       41.4943616163  TIP3      5617            0.0000000000
     41766      5817  TIP3      H1             18.7622052310       17.9205752299       40.9293136982  TIP3      5617            0.0000000000
     41767      5817  TIP3      H2             17.7075071090       17.8130474122       42.0138810858  TIP3      5617            0.0000000000
     41768      5818  TIP3      OH2            24.0059651262       17.3915786534       45.5375302554  TIP3      5618            0.0000000000
     41769      5818  TIP3      H1             24.8919869028       17.8014903033       45.4879119072  TIP3      5618            0.0000000000
     41770      5818  TIP3      H2             23.9515875758       17.1851983734       46.4763358309  TIP3      5618            0.0000000000
     41771      5819  TIP3      OH2            29.7151758739       17.4433358658       47.1555080960  TIP3      5619            0.0000000000
     41772      5819  TIP3      H1             29.6574218798       17.5492274643       46.2044885713  TIP3      5619            0.0000000000
     41773      5819  TIP3      H2             29.3102527251       16.5572538638       47.3164715056  TIP3      5619            0.0000000000
     41774      5820  TIP3      OH2            30.9708679821       17.4533484605       42.8590908874  TIP3      5620            0.0000000000
     41775      5820  TIP3      H1             30.2218934484       18.0523066439       42.7090633913  TIP3      5620            0.0000000000
     41776      5820  TIP3      H2             30.5309095120       16.6060860196       43.1026557252  TIP3      5620            0.0000000000
     41777      5821  TIP3      OH2            18.1994621350       33.1732790305       42.5181378576  TIP3      5621            0.0000000000
     41778      5821  TIP3      H1             17.5365780545       33.1688298926       41.8029449660  TIP3      5621            0.0000000000
     41779      5821  TIP3      H2             18.2000504203       34.1249922302       42.6999720580  TIP3      5621            0.0000000000
     41780      5822  TIP3      OH2            20.1110145820       19.1624173323       40.0065600138  TIP3      5622            0.0000000000
     41781      5822  TIP3      H1             20.6460319171       18.5897201255       39.4333354653  TIP3      5622            0.0000000000
     41782      5822  TIP3      H2             20.7765737084       19.5276437716       40.6162513992  TIP3      5622            0.0000000000
     41783      5823  TIP3      OH2            25.0974908649       19.3880802553       42.4038268508  TIP3      5623            0.0000000000
     41784      5823  TIP3      H1             25.4301406858       18.9054453979       43.1769004526  TIP3      5623            0.0000000000
     41785      5823  TIP3      H2             25.2139037893       20.2957531060       42.7914890861  TIP3      5623            0.0000000000
     41786      5824  TIP3      OH2            27.0545982716       34.5217379833       40.8469446768  TIP3      5624            0.0000000000
     41787      5824  TIP3      H1             27.9835959355       34.7230703477       40.6401290565  TIP3      5624            0.0000000000
     41788      5824  TIP3      H2             26.8505603947       33.9793938003       40.0546965620  TIP3      5624            0.0000000000
     41789      5825  TIP3      OH2            33.7890308990       33.9871766199       43.5701080241  TIP3      5625            0.0000000000
     41790      5825  TIP3      H1             33.5909178544       33.2089281456       43.0001491013  TIP3      5625            0.0000000000
     41791      5825  TIP3      H2             33.7069753565       34.7322448635       42.9363329318  TIP3      5625            0.0000000000
     41792      5826  TIP3      OH2            20.0060908873       34.1901257380       39.4528897231  TIP3      5626            0.0000000000
     41793      5826  TIP3      H1             19.7425733911       34.4122526589       40.3581306881  TIP3      5626            0.0000000000
     41794      5826  TIP3      H2             20.7768085299       33.6064119214       39.6053599948  TIP3      5626            0.0000000000
     41795      5827  TIP3      OH2           -40.4236673389       29.4690135310       49.4714488612  TIP3      5627            0.0000000000
     41796      5827  TIP3      H1            -40.6182496703       28.8857680240       48.7110381052  TIP3      5627            0.0000000000
     41797      5827  TIP3      H2            -39.5475942004       29.7844046639       49.1909174089  TIP3      5627            0.0000000000
     41798      5828  TIP3      OH2            36.1994710709       23.5127608668       44.6514455226  TIP3      5628            0.0000000000
     41799      5828  TIP3      H1             35.8071132699       24.4095510201       44.5882653298  TIP3      5628            0.0000000000
     41800      5828  TIP3      H2             35.6112934397       23.0111840904       44.0846655471  TIP3      5628            0.0000000000
     41801      5829  TIP3      OH2            36.9329461394       25.7553904406       46.7500882120  TIP3      5629            0.0000000000
     41802      5829  TIP3      H1             37.1944231778       24.9590325062       47.2503280084  TIP3      5629            0.0000000000
     41803      5829  TIP3      H2             37.6828011477       25.8672530586       46.1461544956  TIP3      5629            0.0000000000
     41804      5830  TIP3      OH2            37.5961770164       23.2061148736       47.8402910613  TIP3      5630            0.0000000000
     41805      5830  TIP3      H1             38.2966527570       22.7247663105       48.3310521563  TIP3      5630            0.0000000000
     41806      5830  TIP3      H2             37.7513651598       22.8958204841       46.9276983555  TIP3      5630            0.0000000000
     41807      5831  TIP3      OH2            39.3373430838       21.1563761469       49.1147492197  TIP3      5631            0.0000000000
     41808      5831  TIP3      H1             39.7619476253       21.9064055618       49.5672888756  TIP3      5631            0.0000000000
     41809      5831  TIP3      H2             39.9391936477       20.9904031982       48.3736817950  TIP3      5631            0.0000000000
     41810      5832  TIP3      OH2            36.9727129493       28.9927704235       42.9974386665  TIP3      5632            0.0000000000
     41811      5832  TIP3      H1             36.6578493138       29.3452996472       42.1544057814  TIP3      5632            0.0000000000
     41812      5832  TIP3      H2             37.0306096308       29.8202850904       43.5274786644  TIP3      5632            0.0000000000
     41813      5833  TIP3      OH2            36.0595524964       31.0244636030       49.1754204233  TIP3      5633            0.0000000000
     41814      5833  TIP3      H1             37.0011196483       30.8125370919       49.1855505738  TIP3      5633            0.0000000000
     41815      5833  TIP3      H2             35.9085040176       31.8216526943       49.6770069448  TIP3      5633            0.0000000000
     41816      5834  TIP3      OH2            39.0145569120       33.2992838792       45.2417788382  TIP3      5634            0.0000000000
     41817      5834  TIP3      H1             39.3322139831       33.3200831389       46.1727815076  TIP3      5634            0.0000000000
     41818      5834  TIP3      H2             38.0663040615       33.2641729666       45.2947071822  TIP3      5634            0.0000000000
     41819      5835  TIP3      OH2            35.5804575764       20.3473183176       46.2678052409  TIP3      5635            0.0000000000
     41820      5835  TIP3      H1             36.2586523662       20.2744578852       46.9784650695  TIP3      5635            0.0000000000
     41821      5835  TIP3      H2             36.0223155747       19.9175933951       45.5156302997  TIP3      5635            0.0000000000
     41822      5836  TIP3      OH2            36.8173416362       21.0009951215       41.6255791571  TIP3      5636            0.0000000000
     41823      5836  TIP3      H1             37.3296666293       21.6272319557       41.0773898162  TIP3      5636            0.0000000000
     41824      5836  TIP3      H2             36.1486990358       21.6221193785       41.9877935844  TIP3      5636            0.0000000000
     41825      5837  TIP3      OH2            38.5638598026       22.2902954203       45.2110452472  TIP3      5637            0.0000000000
     41826      5837  TIP3      H1             37.6249141532       22.2811185817       44.9855179476  TIP3      5637            0.0000000000
     41827      5837  TIP3      H2             38.8848307587       21.3690284440       45.1387134166  TIP3      5637            0.0000000000
     41828      5838  TIP3      OH2            39.1867536839       27.2952948098       48.0498539159  TIP3      5638            0.0000000000
     41829      5838  TIP3      H1             40.0396672956       27.3187134409       47.5871290082  TIP3      5638            0.0000000000
     41830      5838  TIP3      H2             39.3914795424       26.6020904805       48.7171093824  TIP3      5638            0.0000000000
     41831      5839  TIP3      OH2            37.5674129860       25.6055959484       40.2552622538  TIP3      5639            0.0000000000
     41832      5839  TIP3      H1             38.1282955749       26.2784396434       40.6920425440  TIP3      5639            0.0000000000
     41833      5839  TIP3      H2             36.6567123066       25.9027415723       40.4935513617  TIP3      5639            0.0000000000
     41834      5840  TIP3      OH2            38.9630218979       27.5285692950       41.6736231000  TIP3      5640            0.0000000000
     41835      5840  TIP3      H1             38.3182654813       27.8527562897       42.3423841837  TIP3      5640            0.0000000000
     41836      5840  TIP3      H2             39.4366067291       28.3449538804       41.5031578866  TIP3      5640            0.0000000000
     41837      5841  TIP3      OH2            39.2683761151       30.2178772840       40.7192067856  TIP3      5641            0.0000000000
     41838      5841  TIP3      H1             39.9790195994       30.8259223332       40.9826297965  TIP3      5641            0.0000000000
     41839      5841  TIP3      H2             39.8377922280       29.7547244334       40.0707759225  TIP3      5641            0.0000000000
     41840      5842  TIP3      OH2            37.8974030115       22.8525389734       39.7809442691  TIP3      5642            0.0000000000
     41841      5842  TIP3      H1             37.8539675179       23.8137935715       39.9516231525  TIP3      5642            0.0000000000
     41842      5842  TIP3      H2             37.0208199019       22.6544259190       39.4382024907  TIP3      5642            0.0000000000
     41843      5843  TIP3      OH2            38.6939435168       17.5936586582       48.5190617120  TIP3      5643            0.0000000000
     41844      5843  TIP3      H1             38.4874305311       17.6822413661       47.5630545592  TIP3      5643            0.0000000000
     41845      5843  TIP3      H2             38.2546708003       16.7721242320       48.7465917923  TIP3      5643            0.0000000000
     41846      5844  TIP3      OH2            37.4818481610       31.3955487188       44.5340155746  TIP3      5644            0.0000000000
     41847      5844  TIP3      H1             36.7372480982       32.0101185716       44.5602792809  TIP3      5644            0.0000000000
     41848      5844  TIP3      H2             38.1334590379       31.9405820422       44.0353653561  TIP3      5644            0.0000000000
     41849      5845  TIP3      OH2            36.7638688817       29.8607627498       40.0723358110  TIP3      5645            0.0000000000
     41850      5845  TIP3      H1             37.7164075958       29.9188919286       40.3226404747  TIP3      5645            0.0000000000
     41851      5845  TIP3      H2             36.8177171683       29.1548511222       39.3903167100  TIP3      5645            0.0000000000
     41852      5846  TIP3      OH2            35.5623517838       35.2364216580       45.0693426668  TIP3      5646            0.0000000000
     41853      5846  TIP3      H1             34.8236890217       34.7575092276       44.6266976577  TIP3      5646            0.0000000000
     41854      5846  TIP3      H2             35.8272756969       34.5749571295       45.7455539854  TIP3      5646            0.0000000000
     41855      5847  TIP3      OH2            36.2955971932       33.3317708058       46.8680110506  TIP3      5647            0.0000000000
     41856      5847  TIP3      H1             36.0383877476       32.4304991209       47.1010857904  TIP3      5647            0.0000000000
     41857      5847  TIP3      H2             36.6299494278       33.6517796620       47.7460805737  TIP3      5647            0.0000000000
     41858      5848  TIP3      OH2            36.4547123781       26.5401833052       49.3262237938  TIP3      5648            0.0000000000
     41859      5848  TIP3      H1             36.6460216597       26.3069691640       48.4003560642  TIP3      5648            0.0000000000
     41860      5848  TIP3      H2             37.2506973831       26.2218234861       49.7936414411  TIP3      5648            0.0000000000
     41861      5849  TIP3      OH2            37.1497449039       19.9723286738       48.5166018328  TIP3      5649            0.0000000000
     41862      5849  TIP3      H1             37.7125149661       19.1842869620       48.6651459711  TIP3      5649            0.0000000000
     41863      5849  TIP3      H2             37.7701571609       20.6485888978       48.8547429024  TIP3      5649            0.0000000000
     41864      5850  TIP3      OH2            35.5600190926       22.9588129277       49.5152627606  TIP3      5650            0.0000000000
     41865      5850  TIP3      H1             36.1023839003       22.7574076967       48.7181134612  TIP3      5650            0.0000000000
     41866      5850  TIP3      H2             35.9366623554       23.8250018982       49.7416931482  TIP3      5650            0.0000000000
     41867      5851  TIP3      OH2            35.9134750085       19.2603278572       43.5694439051  TIP3      5651            0.0000000000
     41868      5851  TIP3      H1             34.9680574159       19.4441410827       43.4274499707  TIP3      5651            0.0000000000
     41869      5851  TIP3      H2             36.3329273081       19.7545432189       42.8487816154  TIP3      5651            0.0000000000
     41870      5852  TIP3      OH2            37.6120996116       33.7654638924       48.9651067378  TIP3      5652            0.0000000000
     41871      5852  TIP3      H1             37.7584218324       33.7698333404       49.9251355717  TIP3      5652            0.0000000000
     41872      5852  TIP3      H2             38.5593048774       33.7759431901       48.7576569410  TIP3      5652            0.0000000000
     41873      5853  TIP3      OH2            38.0558152600       17.5351468522       45.8818735360  TIP3      5653            0.0000000000
     41874      5853  TIP3      H1             37.4394530834       17.3024857844       45.1739978701  TIP3      5653            0.0000000000
     41875      5853  TIP3      H2             38.7881546906       16.9074545116       45.7920274018  TIP3      5653            0.0000000000
     41876      5854  TIP3      OH2            37.1331678464       17.2443825603       41.4963572411  TIP3      5654            0.0000000000
     41877      5854  TIP3      H1             37.6162229705       17.8927161454       40.9483921881  TIP3      5654            0.0000000000
     41878      5854  TIP3      H2             36.5572787714       17.8174628904       42.0323530318  TIP3      5654            0.0000000000
     41879      5855  TIP3      OH2            37.0321046219       33.1724506080       42.4922018118  TIP3      5655            0.0000000000
     41880      5855  TIP3      H1             36.3716049226       33.1819469597       41.7799630693  TIP3      5655            0.0000000000
     41881      5855  TIP3      H2             37.0558740846       34.1171678005       42.6925122093  TIP3      5655            0.0000000000
     41882      5856  TIP3      OH2            38.9892560461       19.1964809559       40.0555955230  TIP3      5656            0.0000000000
     41883      5856  TIP3      H1             39.5086274359       18.5769815494       39.5230259859  TIP3      5656            0.0000000000
     41884      5856  TIP3      H2             39.6498180813       19.5596310722       40.6532294373  TIP3      5656            0.0000000000
     41885      5857  TIP3      OH2            38.8510730333       34.1317807003       39.4527500762  TIP3      5657            0.0000000000
     41886      5857  TIP3      H1             38.5934880952       34.4718894856       40.3236637956  TIP3      5657            0.0000000000
     41887      5857  TIP3      H2             39.6587730311       33.6482356046       39.6400240882  TIP3      5657            0.0000000000
     41888      5858  TIP3      OH2           -34.3588849616       39.6185791369       47.1033953909  TIP3      5658            0.0000000000
     41889      5858  TIP3      H1            -34.3637667231       40.4969337850       46.6973948073  TIP3      5658            0.0000000000
     41890      5858  TIP3      H2            -34.8494489971       39.0875050930       46.4533101147  TIP3      5658            0.0000000000
     41891      5859  TIP3      OH2           -26.5593323041      -40.1546432481       45.1706661417  TIP3      5659            0.0000000000
     41892      5859  TIP3      H1            -26.0747419671      -40.4115131590       45.9982252244  TIP3      5659            0.0000000000
     41893      5859  TIP3      H2            -26.0223704433      -39.4066099677       44.8845622205  TIP3      5659            0.0000000000
     41894      5860  TIP3      OH2           -25.0280833144       38.7192236375       47.3665755181  TIP3      5660            0.0000000000
     41895      5860  TIP3      H1            -25.2314961416       38.1565108568       48.1150794750  TIP3      5660            0.0000000000
     41896      5860  TIP3      H2            -24.3320523199       39.2458348234       47.8157119560  TIP3      5660            0.0000000000
     41897      5861  TIP3      OH2           -31.5439527673       35.9502116694       48.6618781150  TIP3      5661            0.0000000000
     41898      5861  TIP3      H1            -31.6819158080       34.9888264085       48.5316535403  TIP3      5661            0.0000000000
     41899      5861  TIP3      H2            -32.4576726239       36.2530572631       48.8656996514  TIP3      5661            0.0000000000
     41900      5862  TIP3      OH2           -23.2532283743       35.8210908360       41.6182822363  TIP3      5662            0.0000000000
     41901      5862  TIP3      H1            -24.1880257921       35.9748781389       41.8803389428  TIP3      5662            0.0000000000
     41902      5862  TIP3      H2            -23.0386806532       36.6806432609       41.1976496611  TIP3      5662            0.0000000000
     41903      5863  TIP3      OH2           -34.2455434373       36.7947065761       49.4196555077  TIP3      5663            0.0000000000
     41904      5863  TIP3      H1            -35.1233079751       36.6783366655       48.9856204786  TIP3      5663            0.0000000000
     41905      5863  TIP3      H2            -34.3010581188       37.6824674496       49.7891227964  TIP3      5663            0.0000000000
     41906      5864  TIP3      OH2           -29.8693539426       38.9843410994       40.0789492517  TIP3      5664            0.0000000000
     41907      5864  TIP3      H1            -30.2829318948       39.0407218204       40.9584451217  TIP3      5664            0.0000000000
     41908      5864  TIP3      H2            -30.2916939626       38.1679203865       39.7429613995  TIP3      5664            0.0000000000
     41909      5865  TIP3      OH2           -33.0970405715       39.3067358502       39.1851460311  TIP3      5665            0.0000000000
     41910      5865  TIP3      H1            -33.5359626111       39.0137241097       40.0004206317  TIP3      5665            0.0000000000
     41911      5865  TIP3      H2            -33.7531588501       39.8977988207       38.7999415081  TIP3      5665            0.0000000000
     41912      5866  TIP3      OH2           -39.7911263183       39.1233806150       46.2577037613  TIP3      5666            0.0000000000
     41913      5866  TIP3      H1            -39.1588482598       39.1250020909       47.0108822256  TIP3      5666            0.0000000000
     41914      5866  TIP3      H2            -39.3284018471       38.6906148565       45.5245036490  TIP3      5666            0.0000000000
     41915      5867  TIP3      OH2           -31.4876925649       38.9290871301       46.5645042638  TIP3      5667            0.0000000000
     41916      5867  TIP3      H1            -32.3972470414       39.2275764746       46.7345558918  TIP3      5667            0.0000000000
     41917      5867  TIP3      H2            -31.0396291345       39.4206699439       47.2851543396  TIP3      5667            0.0000000000
     41918      5868  TIP3      OH2           -27.2783709760       38.3609975546       49.6998422674  TIP3      5668            0.0000000000
     41919      5868  TIP3      H1            -27.7914168580       38.8860253697       50.3298333381  TIP3      5668            0.0000000000
     41920      5868  TIP3      H2            -27.7664966302       38.5331066091       48.8830250289  TIP3      5668            0.0000000000
     41921      5869  TIP3      OH2           -35.3020748139       38.3792433932       44.8353659897  TIP3      5669            0.0000000000
     41922      5869  TIP3      H1            -35.6379847660       37.4582576963       44.7946388367  TIP3      5669            0.0000000000
     41923      5869  TIP3      H2            -34.5147461797       38.3274896877       44.2869918796  TIP3      5669            0.0000000000
     41924      5870  TIP3      OH2           -27.2546202258      -40.1667296998       40.7659408788  TIP3      5670            0.0000000000
     41925      5870  TIP3      H1            -28.1931893877      -40.0485991172       40.4997968184  TIP3      5670            0.0000000000
     41926      5870  TIP3      H2            -26.9445743653      -39.2655738110       40.9220790680  TIP3      5670            0.0000000000
     41927      5871  TIP3      OH2           -27.9090090133       38.6767901340       43.1513903749  TIP3      5671            0.0000000000
     41928      5871  TIP3      H1            -27.6110156987       39.0988365859       42.3239868198  TIP3      5671            0.0000000000
     41929      5871  TIP3      H2            -27.3512952241       39.0839314380       43.8502297238  TIP3      5671            0.0000000000
     41930      5872  TIP3      OH2           -29.7684664583       37.4906792810       44.8758452877  TIP3      5672            0.0000000000
     41931      5872  TIP3      H1            -30.1257000646       38.1513790824       45.5128562877  TIP3      5672            0.0000000000
     41932      5872  TIP3      H2            -29.0959229108       38.0327214644       44.4140814106  TIP3      5672            0.0000000000
     41933      5873  TIP3      OH2           -34.0980634934       38.5628971095       41.5882418620  TIP3      5673            0.0000000000
     41934      5873  TIP3      H1            -34.1740646726       39.4519399638       41.9705211374  TIP3      5673            0.0000000000
     41935      5873  TIP3      H2            -33.1945982099       38.2896354958       41.8409448045  TIP3      5673            0.0000000000
     41936      5874  TIP3      OH2           -36.7585447514       36.4728279405       48.4754321975  TIP3      5674            0.0000000000
     41937      5874  TIP3      H1            -36.9392557159       36.4837144098       47.5151818706  TIP3      5674            0.0000000000
     41938      5874  TIP3      H2            -37.1633050790       35.6278728112       48.7435251854  TIP3      5674            0.0000000000
     41939      5875  TIP3      OH2           -23.9277216231       39.1454482507       38.8489302863  TIP3      5675            0.0000000000
     41940      5875  TIP3      H1            -23.3033374833       38.8513866701       39.5422735373  TIP3      5675            0.0000000000
     41941      5875  TIP3      H2            -24.7764700989       38.7536757857       39.0835700532  TIP3      5675            0.0000000000
     41942      5876  TIP3      OH2           -23.6644832614       38.0153175430       43.9388114007  TIP3      5676            0.0000000000
     41943      5876  TIP3      H1            -23.4514839236       37.5873385077       44.7837759322  TIP3      5676            0.0000000000
     41944      5876  TIP3      H2            -24.2756855608       37.3937952237       43.4985929046  TIP3      5676            0.0000000000
     41945      5877  TIP3      OH2           -38.2456577482       38.8023780062       48.4039606571  TIP3      5677            0.0000000000
     41946      5877  TIP3      H1            -37.7679299922       37.9976955587       48.6976017125  TIP3      5677            0.0000000000
     41947      5877  TIP3      H2            -37.9357486973       39.4565016424       49.0154970244  TIP3      5677            0.0000000000
     41948      5878  TIP3      OH2           -21.7869941121       37.9947368934       40.4713246831  TIP3      5678            0.0000000000
     41949      5878  TIP3      H1            -21.3916771876       37.3507982136       39.8669174330  TIP3      5678            0.0000000000
     41950      5878  TIP3      H2            -21.1916187964       38.7666868299       40.4514732325  TIP3      5678            0.0000000000
     41951      5879  TIP3      OH2           -39.4680693431       38.1684412893       43.4461578010  TIP3      5679            0.0000000000
     41952      5879  TIP3      H1            -40.4194268227       38.3367980633       43.4061265918  TIP3      5679            0.0000000000
     41953      5879  TIP3      H2            -39.0602176152       38.7349410774       42.7859872957  TIP3      5679            0.0000000000
     41954      5880  TIP3      OH2           -29.3510408047       37.6988028182       47.9922899456  TIP3      5680            0.0000000000
     41955      5880  TIP3      H1            -30.1053885843       37.1113321926       48.1641284380  TIP3      5680            0.0000000000
     41956      5880  TIP3      H2            -28.8714679989       37.1679002872       47.3404532797  TIP3      5680            0.0000000000
     41957      5881  TIP3      OH2           -24.3022029928       35.8266534162       47.9935045261  TIP3      5681            0.0000000000
     41958      5881  TIP3      H1            -23.6699381128       36.3955442466       47.4912092860  TIP3      5681            0.0000000000
     41959      5881  TIP3      H2            -25.1636030072       36.2105937887       47.7632106408  TIP3      5681            0.0000000000
     41960      5882  TIP3      OH2           -22.5901747437       36.9729637286       46.3044244996  TIP3      5682            0.0000000000
     41961      5882  TIP3      H1            -21.9087404864       36.4440713263       45.8334573383  TIP3      5682            0.0000000000
     41962      5882  TIP3      H2            -22.1299587798       37.8395447645       46.3718436315  TIP3      5682            0.0000000000
     41963      5883  TIP3      OH2           -37.0219909308       36.3534893573       45.6985049562  TIP3      5683            0.0000000000
     41964      5883  TIP3      H1            -37.8447795391       36.1560254058       45.2132753824  TIP3      5683            0.0000000000
     41965      5883  TIP3      H2            -36.5901102371       35.4736101727       45.7237586944  TIP3      5683            0.0000000000
     41966      5884  TIP3      OH2           -38.3173873889       36.0985575638       41.4560010317  TIP3      5684            0.0000000000
     41967      5884  TIP3      H1            -37.7810870756       36.7369433528       40.9442033576  TIP3      5684            0.0000000000
     41968      5884  TIP3      H2            -38.8313981175       36.6532099612       42.0597069841  TIP3      5684            0.0000000000
     41969      5885  TIP3      OH2           -32.5633322745       36.2177577325       45.5373282974  TIP3      5685            0.0000000000
     41970      5885  TIP3      H1            -31.6782355532       36.6216158843       45.4843090153  TIP3      5685            0.0000000000
     41971      5885  TIP3      H2            -32.6380382955       36.0516968605       46.4767408997  TIP3      5685            0.0000000000
     41972      5886  TIP3      OH2           -26.9508746445       36.3457196532       47.1697482571  TIP3      5686            0.0000000000
     41973      5886  TIP3      H1            -26.8786232612       36.4014804030       46.2151100446  TIP3      5686            0.0000000000
     41974      5886  TIP3      H2            -27.2744170649       35.4268909198       47.2995427771  TIP3      5686            0.0000000000
     41975      5887  TIP3      OH2           -25.6122016009       36.3656135881       42.9016469230  TIP3      5687            0.0000000000
     41976      5887  TIP3      H1            -26.3680061283       36.9148263347       42.6761989134  TIP3      5687            0.0000000000
     41977      5887  TIP3      H2            -26.0235736883       35.4914377533       43.0923584920  TIP3      5687            0.0000000000
     41978      5888  TIP3      OH2           -36.4421937941       38.0657113999       39.9899565284  TIP3      5688            0.0000000000
     41979      5888  TIP3      H1            -35.9418059227       37.4096947118       39.4738967507  TIP3      5688            0.0000000000
     41980      5888  TIP3      H2            -35.7560369847       38.3086815567       40.6428137723  TIP3      5688            0.0000000000
     41981      5889  TIP3      OH2           -31.3949791183       38.3457126686       42.4286817706  TIP3      5689            0.0000000000
     41982      5889  TIP3      H1            -31.1714591638       37.7019402227       43.1294061144  TIP3      5689            0.0000000000
     41983      5889  TIP3      H2            -31.4162126263       39.1759694310       42.9230520932  TIP3      5689            0.0000000000
     41984      5890  TIP3      OH2           -15.5060832085       39.6184150734       47.1034887547  TIP3      5690            0.0000000000
     41985      5890  TIP3      H1            -15.5072207107       40.4965522647       46.6969493046  TIP3      5690            0.0000000000
     41986      5890  TIP3      H2            -15.9946490946       39.0870376159       46.4529737870  TIP3      5690            0.0000000000
     41987      5891  TIP3      OH2            -7.7060570592      -40.1675586596       45.1691849095  TIP3      5691            0.0000000000
     41988      5891  TIP3      H1             -7.2184394158      -40.4117881412       45.9989169160  TIP3      5691            0.0000000000
     41989      5891  TIP3      H2             -7.1663369458      -39.4275054738       44.8720848903  TIP3      5691            0.0000000000
     41990      5892  TIP3      OH2            -6.1551891803       38.7320299964       47.3555389303  TIP3      5692            0.0000000000
     41991      5892  TIP3      H1             -6.3900195292       38.1648484864       48.1021886126  TIP3      5692            0.0000000000
     41992      5892  TIP3      H2             -5.4725811191       39.2475286944       47.8310475357  TIP3      5692            0.0000000000
     41993      5893  TIP3      OH2           -12.7044346191       35.9629191914       48.6059087751  TIP3      5693            0.0000000000
     41994      5893  TIP3      H1            -12.8064182197       34.9925784277       48.5527324105  TIP3      5693            0.0000000000
     41995      5893  TIP3      H2            -13.5966512761       36.2546781429       48.8853709687  TIP3      5693            0.0000000000
     41996      5894  TIP3      OH2            -4.4252274012       35.8120342534       41.6055716036  TIP3      5694            0.0000000000
     41997      5894  TIP3      H1             -5.3409086177       36.0008760885       41.8945924850  TIP3      5694            0.0000000000
     41998      5894  TIP3      H2             -4.1740486501       36.6761046310       41.2060017888  TIP3      5694            0.0000000000
     41999      5895  TIP3      OH2           -15.3987562295       36.7928826703       49.4232829038  TIP3      5695            0.0000000000
     42000      5895  TIP3      H1            -16.2634956844       36.6912620000       48.9696600529  TIP3      5695            0.0000000000
     42001      5895  TIP3      H2            -15.4328878940       37.6818191520       49.7903497761  TIP3      5695            0.0000000000
     42002      5896  TIP3      OH2           -11.0187597170       38.9963505226       40.0754459589  TIP3      5696            0.0000000000
     42003      5896  TIP3      H1            -11.4247049210       39.0433815489       40.9586470565  TIP3      5696            0.0000000000
     42004      5896  TIP3      H2            -11.4325821806       38.1730305362       39.7437029845  TIP3      5696            0.0000000000
     42005      5897  TIP3      OH2           -14.2399165280       39.3046558154       39.1860473301  TIP3      5697            0.0000000000
     42006      5897  TIP3      H1            -14.6843771897       39.0144806425       39.9992113282  TIP3      5697            0.0000000000
     42007      5897  TIP3      H2            -14.8978154492       39.8928174126       38.8018040712  TIP3      5697            0.0000000000
     42008      5898  TIP3      OH2           -20.9584144377       39.1773972209       46.2776669640  TIP3      5698            0.0000000000
     42009      5898  TIP3      H1            -20.3053018752       39.1526642470       47.0105710210  TIP3      5698            0.0000000000
     42010      5898  TIP3      H2            -20.5053469489       38.7640714364       45.5145191383  TIP3      5698            0.0000000000
     42011      5899  TIP3      OH2           -12.6455293368       38.9436695004       46.5419656418  TIP3      5699            0.0000000000
     42012      5899  TIP3      H1            -13.5514818759       39.2359039994       46.7369340256  TIP3      5699            0.0000000000
     42013      5899  TIP3      H2            -12.1852956348       39.3933412687       47.2858153906  TIP3      5699            0.0000000000
     42014      5900  TIP3      OH2            -8.3418023115       38.5047600701       49.6370844274  TIP3      5700            0.0000000000
     42015      5900  TIP3      H1             -8.9463326022       38.7751227628       50.3407330755  TIP3      5700            0.0000000000
     42016      5900  TIP3      H2             -8.9570607431       38.4691219268       48.9025818040  TIP3      5700            0.0000000000
     42017      5901  TIP3      OH2           -16.4591912368       38.3715200375       44.8320543093  TIP3      5701            0.0000000000
     42018      5901  TIP3      H1            -16.7717914308       37.4451385734       44.7899221564  TIP3      5701            0.0000000000
     42019      5901  TIP3      H2            -15.6590696152       38.3343607978       44.2959927298  TIP3      5701            0.0000000000
     42020      5902  TIP3      OH2            -8.3973781047      -40.1656132209       40.7628523639  TIP3      5702            0.0000000000
     42021      5902  TIP3      H1             -9.3365240132      -40.0490380412       40.4992354204  TIP3      5702            0.0000000000
     42022      5902  TIP3      H2             -8.0856378599      -39.2659052625       40.9232627456  TIP3      5702            0.0000000000
     42023      5903  TIP3      OH2            -9.0698706701       38.6984996037       43.1458953696  TIP3      5703            0.0000000000
     42024      5903  TIP3      H1             -8.7533007303       39.0889244106       42.3108121405  TIP3      5703            0.0000000000
     42025      5903  TIP3      H2             -8.4971087241       39.0886476399       43.8429718020  TIP3      5703            0.0000000000
     42026      5904  TIP3      OH2           -10.9169214097       37.4910934380       44.8739771899  TIP3      5704            0.0000000000
     42027      5904  TIP3      H1            -11.2560994103       38.1395435716       45.5363626035  TIP3      5704            0.0000000000
     42028      5904  TIP3      H2            -10.2435667089       38.0372731259       44.4179147953  TIP3      5704            0.0000000000
     42029      5905  TIP3      OH2           -15.2425616630       38.5592933680       41.5916918484  TIP3      5705            0.0000000000
     42030      5905  TIP3      H1            -15.3215701229       39.4505860384       41.9676473861  TIP3      5705            0.0000000000
     42031      5905  TIP3      H2            -14.3409386209       38.2892979148       41.8471354651  TIP3      5705            0.0000000000
     42032      5906  TIP3      OH2           -17.8935632717       36.4680251977       48.4649760897  TIP3      5706            0.0000000000
     42033      5906  TIP3      H1            -18.0845407996       36.4945762997       47.5061984345  TIP3      5706            0.0000000000
     42034      5906  TIP3      H2            -18.2630242687       35.6172900536       48.7389769997  TIP3      5706            0.0000000000
     42035      5907  TIP3      OH2            -5.0705329429       39.1558403224       38.8533516006  TIP3      5707            0.0000000000
     42036      5907  TIP3      H1             -4.4463949147       38.8516839921       39.5413972181  TIP3      5707            0.0000000000
     42037      5907  TIP3      H2             -5.9166746939       38.7563031005       39.0807216910  TIP3      5707            0.0000000000
     42038      5908  TIP3      OH2            -4.8134834583       38.0124140620       43.9366622799  TIP3      5708            0.0000000000
     42039      5908  TIP3      H1             -4.5952523380       37.5870222783       44.7847553078  TIP3      5708            0.0000000000
     42040      5908  TIP3      H2             -5.4228690856       37.3914988680       43.5005807719  TIP3      5708            0.0000000000
     42041      5909  TIP3      OH2           -19.3599757506       38.7706685378       48.4218255875  TIP3      5709            0.0000000000
     42042      5909  TIP3      H1            -18.8789883187       37.9647449678       48.7077268511  TIP3      5709            0.0000000000
     42043      5909  TIP3      H2            -19.0675036859       39.4410136910       49.0298285397  TIP3      5709            0.0000000000
     42044      5910  TIP3      OH2            -2.9247622453       37.9941941239       40.4815363591  TIP3      5710            0.0000000000
     42045      5910  TIP3      H1             -2.5377935293       37.3527814518       39.8671770593  TIP3      5710            0.0000000000
     42046      5910  TIP3      H2             -2.3339292626       38.7684250546       40.4506748898  TIP3      5710            0.0000000000
     42047      5911  TIP3      OH2           -20.6398968342       38.1879718297       43.6040429226  TIP3      5711            0.0000000000
     42048      5911  TIP3      H1            -21.5941639598       38.2853153849       43.4190239187  TIP3      5711            0.0000000000
     42049      5911  TIP3      H2            -20.2653872262       38.6558457430       42.8517478386  TIP3      5711            0.0000000000
     42050      5912  TIP3      OH2           -10.5202873090       37.7569457386       47.9213204266  TIP3      5712            0.0000000000
     42051      5912  TIP3      H1            -11.2060677578       37.1304894265       48.2196473434  TIP3      5712            0.0000000000
     42052      5912  TIP3      H2             -9.9966346691       37.1565070621       47.3772927620  TIP3      5712            0.0000000000
     42053      5913  TIP3      OH2            -5.4369112689       35.8053814781       47.9682260798  TIP3      5713            0.0000000000
     42054      5913  TIP3      H1             -4.8190651765       36.4035176851       47.4865753844  TIP3      5713            0.0000000000
     42055      5913  TIP3      H2             -6.3103204907       36.2005582429       47.7880523990  TIP3      5713            0.0000000000
     42056      5914  TIP3      OH2            -3.7289739572       36.9729362036       46.3010861030  TIP3      5714            0.0000000000
     42057      5914  TIP3      H1             -3.0453209548       36.4464201346       45.8365662739  TIP3      5714            0.0000000000
     42058      5914  TIP3      H2             -3.2712011526       37.8410089764       46.3715442243  TIP3      5714            0.0000000000
     42059      5915  TIP3      OH2           -18.1839889168       36.3428387995       45.6981217619  TIP3      5715            0.0000000000
     42060      5915  TIP3      H1            -18.9964625294       36.1308266721       45.2142971837  TIP3      5715            0.0000000000
     42061      5915  TIP3      H2            -17.7322242820       35.4735025371       45.7184110948  TIP3      5715            0.0000000000
     42062      5916  TIP3      OH2           -19.3750068339       36.0947130590       41.5302251028  TIP3      5716            0.0000000000
     42063      5916  TIP3      H1            -18.9285020972       36.7485106303       40.9592257886  TIP3      5716            0.0000000000
     42064      5916  TIP3      H2            -20.0073552486       36.6480780874       42.0197020805  TIP3      5716            0.0000000000
     42065      5917  TIP3      OH2           -13.7111248413       36.2191587890       45.5444406370  TIP3      5717            0.0000000000
     42066      5917  TIP3      H1            -12.8263775112       36.6222029991       45.4824448980  TIP3      5717            0.0000000000
     42067      5917  TIP3      H2            -13.7674493668       36.0537880909       46.4872105783  TIP3      5717            0.0000000000
     42068      5918  TIP3      OH2            -8.0618892111       36.3433427306       47.1521807244  TIP3      5718            0.0000000000
     42069      5918  TIP3      H1             -8.0399369821       36.3918688454       46.1988359742  TIP3      5718            0.0000000000
     42070      5918  TIP3      H2             -8.4299455737       35.4463741988       47.3297892818  TIP3      5718            0.0000000000
     42071      5919  TIP3      OH2            -6.7596320997       36.3471747613       42.8708140239  TIP3      5719            0.0000000000
     42072      5919  TIP3      H1             -7.5036162921       36.9324748882       42.6911882412  TIP3      5719            0.0000000000
     42073      5919  TIP3      H2             -7.1803727489       35.5002195168       43.1145691015  TIP3      5719            0.0000000000
     42074      5920  TIP3      OH2           -17.5718512068       38.0802138953       39.9935964740  TIP3      5720            0.0000000000
     42075      5920  TIP3      H1            -17.0866484369       37.4109050336       39.4764048691  TIP3      5720            0.0000000000
     42076      5920  TIP3      H2            -16.8900228347       38.3152244142       40.6494688205  TIP3      5720            0.0000000000
     42077      5921  TIP3      OH2           -12.5410788800       38.3439547879       42.4240877204  TIP3      5721            0.0000000000
     42078      5921  TIP3      H1            -12.3165910282       37.7035920030       43.1280992235  TIP3      5721            0.0000000000
     42079      5921  TIP3      H2            -12.5599190682       39.1739570814       42.9214538059  TIP3      5721            0.0000000000
     42080      5922  TIP3      OH2             3.3743233730       39.5696005481       47.0892502808  TIP3      5722            0.0000000000
     42081      5922  TIP3      H1              3.3458196757       40.4856901968       46.7559970810  TIP3      5722            0.0000000000
     42082      5922  TIP3      H2              2.8497290008       39.0828179515       46.4329080661  TIP3      5722            0.0000000000
     42083      5923  TIP3      OH2            11.1564415432      -40.1572178600       45.1679784591  TIP3      5723            0.0000000000
     42084      5923  TIP3      H1             11.6381018161      -40.4116781824       45.9981776231  TIP3      5723            0.0000000000
     42085      5923  TIP3      H2             11.6910124665      -39.4065374241       44.8852293736  TIP3      5723            0.0000000000
     42086      5924  TIP3      OH2            12.7063829817       38.7200965218       47.3511964937  TIP3      5724            0.0000000000
     42087      5924  TIP3      H1             12.4581285796       38.1710643182       48.1079483036  TIP3      5724            0.0000000000
     42088      5924  TIP3      H2             13.3805094243       39.2465265484       47.8260929545  TIP3      5724            0.0000000000
     42089      5925  TIP3      OH2             6.1458713215       35.9700581243       48.6052312116  TIP3      5725            0.0000000000
     42090      5925  TIP3      H1              6.0448664211       34.9988138144       48.5546002655  TIP3      5725            0.0000000000
     42091      5925  TIP3      H2              5.2560596899       36.2684149231       48.8944570819  TIP3      5725            0.0000000000
     42092      5926  TIP3      OH2            14.4540696954       35.8259490295       41.6314800684  TIP3      5726            0.0000000000
     42093      5926  TIP3      H1             13.5174596576       35.9776496596       41.8826579265  TIP3      5726            0.0000000000
     42094      5926  TIP3      H2             14.6723403165       36.6800616880       41.1988288278  TIP3      5726            0.0000000000
     42095      5927  TIP3      OH2             3.4579505395       36.7825756993       49.4152802660  TIP3      5727            0.0000000000
     42096      5927  TIP3      H1              2.5876461685       36.6984073359       48.9735064045  TIP3      5727            0.0000000000
     42097      5927  TIP3      H2              3.4260021111       37.6719865315       49.7988727659  TIP3      5727            0.0000000000
     42098      5928  TIP3      OH2             7.8455899004       38.9833051542       40.0780254771  TIP3      5728            0.0000000000
     42099      5928  TIP3      H1              7.4299434199       39.0414988252       40.9587361190  TIP3      5728            0.0000000000
     42100      5928  TIP3      H2              7.4208284436       38.1686751866       39.7433890788  TIP3      5728            0.0000000000
     42101      5929  TIP3      OH2             4.6164381373       39.3046681557       39.1859654676  TIP3      5729            0.0000000000
     42102      5929  TIP3      H1              4.1739976312       39.0147407289       40.0000142345  TIP3      5729            0.0000000000
     42103      5929  TIP3      H2              3.9581109676       39.8921393553       38.8016525902  TIP3      5729            0.0000000000
     42104      5930  TIP3      OH2            -2.0939766910       39.1773459199       46.2824146673  TIP3      5730            0.0000000000
     42105      5930  TIP3      H1             -1.4411211556       39.1411195962       47.0149245819  TIP3      5730            0.0000000000
     42106      5930  TIP3      H2             -1.6411702442       38.7678336313       45.5190129758  TIP3      5730            0.0000000000
     42107      5931  TIP3      OH2             6.2047190510       38.9356053121       46.5467118719  TIP3      5731            0.0000000000
     42108      5931  TIP3      H1              5.2971666796       39.2371578687       46.7414892803  TIP3      5731            0.0000000000
     42109      5931  TIP3      H2              6.6628954131       39.3903582732       47.2900438828  TIP3      5731            0.0000000000
     42110      5932  TIP3      OH2            10.5246964641       38.5027561975       49.6336500211  TIP3      5732            0.0000000000
     42111      5932  TIP3      H1              9.9230303906       38.7738078168       50.3417354443  TIP3      5732            0.0000000000
     42112      5932  TIP3      H2              9.8996216338       38.4694126733       48.9048771563  TIP3      5732            0.0000000000
     42113      5933  TIP3      OH2             2.3848371724       38.3680080037       44.8143114194  TIP3      5733            0.0000000000
     42114      5933  TIP3      H1              2.0848709061       37.4373605092       44.7849278936  TIP3      5733            0.0000000000
     42115      5933  TIP3      H2              3.1963958606       38.3367968597       44.2923337445  TIP3      5733            0.0000000000
     42116      5934  TIP3      OH2            10.4580471964      -40.1671911390       40.7665295756  TIP3      5734            0.0000000000
     42117      5934  TIP3      H1              9.5184206303      -40.0494018753       40.5048844715  TIP3      5734            0.0000000000
     42118      5934  TIP3      H2             10.7680815365      -39.2661820278       40.9210855942  TIP3      5734            0.0000000000
     42119      5935  TIP3      OH2             9.8056532518       38.6746305349       43.1497406310  TIP3      5735            0.0000000000
     42120      5935  TIP3      H1             10.1005674535       39.0945577932       42.3215141490  TIP3      5735            0.0000000000
     42121      5935  TIP3      H2             10.3606201465       39.0833112356       43.8505082842  TIP3      5735            0.0000000000
     42122      5936  TIP3      OH2             7.9430893765       37.4879259617       44.8753875112  TIP3      5736            0.0000000000
     42123      5936  TIP3      H1              7.6009962502       38.1339052043       45.5368248400  TIP3      5736            0.0000000000
     42124      5936  TIP3      H2              8.6136552129       38.0350354891       44.4166908924  TIP3      5736            0.0000000000
     42125      5937  TIP3      OH2             3.6069416679       38.5655036588       41.5883036571  TIP3      5737            0.0000000000
     42126      5937  TIP3      H1              3.5321623473       39.4528514373       41.9687625700  TIP3      5737            0.0000000000
     42127      5937  TIP3      H2              4.5075195392       38.2916800154       41.8542577641  TIP3      5737            0.0000000000
     42128      5938  TIP3      OH2             0.9673544186       36.4600126137       48.4567527157  TIP3      5738            0.0000000000
     42129      5938  TIP3      H1              0.7622198820       36.4906239756       47.5034418667  TIP3      5738            0.0000000000
     42130      5938  TIP3      H2              0.5896956923       35.6214634748       48.7491567287  TIP3      5738            0.0000000000
     42131      5939  TIP3      OH2            13.7846584398       39.1450506039       38.8484901224  TIP3      5739            0.0000000000
     42132      5939  TIP3      H1             14.4088893563       38.8515637916       39.5425103219  TIP3      5739            0.0000000000
     42133      5939  TIP3      H2             12.9358107461       38.7537013143       39.0840459413  TIP3      5739            0.0000000000
     42134      5940  TIP3      OH2            14.0471852225       38.0148468984       43.9383458276  TIP3      5740            0.0000000000
     42135      5940  TIP3      H1             14.2602996484       37.5878818321       44.7839621316  TIP3      5740            0.0000000000
     42136      5940  TIP3      H2             13.4340449372       37.3935518077       43.5001030218  TIP3      5740            0.0000000000
     42137      5941  TIP3      OH2            -0.5026390297       38.7606787184       48.4273822834  TIP3      5741            0.0000000000
     42138      5941  TIP3      H1             -0.0058057434       37.9710169249       48.7260035562  TIP3      5741            0.0000000000
     42139      5941  TIP3      H2             -0.1903357438       39.4460582439       49.0208039280  TIP3      5741            0.0000000000
     42140      5942  TIP3      OH2            15.9249707664       37.9946167248       40.4713063670  TIP3      5742            0.0000000000
     42141      5942  TIP3      H1             16.3202131714       37.3506623061       39.8669367786  TIP3      5742            0.0000000000
     42142      5942  TIP3      H2             16.5203585099       38.7666034697       40.4514080817  TIP3      5742            0.0000000000
     42143      5943  TIP3      OH2            -1.7858413756       38.1862860150       43.6021743895  TIP3      5743            0.0000000000
     42144      5943  TIP3      H1             -2.7399341232       38.2767440306       43.4161697975  TIP3      5743            0.0000000000
     42145      5943  TIP3      H2             -1.4098947343       38.6559737106       42.8521035956  TIP3      5743            0.0000000000
     42146      5944  TIP3      OH2             8.3383628072       37.7539398205       47.9211266827  TIP3      5744            0.0000000000
     42147      5944  TIP3      H1              7.6501443868       37.1283224405       48.2194402862  TIP3      5744            0.0000000000
     42148      5944  TIP3      H2              8.8624420096       37.1528241884       47.3768687733  TIP3      5744            0.0000000000
     42149      5945  TIP3      OH2            13.4233574546       35.8109160088       47.9770754464  TIP3      5745            0.0000000000
     42150      5945  TIP3      H1             14.0375228743       36.4044102550       47.4862286658  TIP3      5745            0.0000000000
     42151      5945  TIP3      H2             12.5499423136       36.2030831455       47.7868371966  TIP3      5745            0.0000000000
     42152      5946  TIP3      OH2            15.1283256299       36.9728930969       46.3015604564  TIP3      5746            0.0000000000
     42153      5946  TIP3      H1             15.8073070246       36.4429981388       45.8314020298  TIP3      5746            0.0000000000
     42154      5946  TIP3      H2             15.5844902181       37.8408493258       46.3706025023  TIP3      5746            0.0000000000
     42155      5947  TIP3      OH2             0.6744769874       36.3425442004       45.6990420098  TIP3      5747            0.0000000000
     42156      5947  TIP3      H1             -0.1409388631       36.1308409685       45.2137209363  TIP3      5747            0.0000000000
     42157      5947  TIP3      H2              1.1229191455       35.4742803587       45.7197213843  TIP3      5747            0.0000000000
     42158      5948  TIP3      OH2            -0.5181433791       36.0933719120       41.5307354747  TIP3      5748            0.0000000000
     42159      5948  TIP3      H1             -0.0730314175       36.7474024085       40.9591944328  TIP3      5748            0.0000000000
     42160      5948  TIP3      H2             -1.1509564495       36.6491765714       42.0197157638  TIP3      5748            0.0000000000
     42161      5949  TIP3      OH2             5.1453414083       36.2181643524       45.5439830886  TIP3      5749            0.0000000000
     42162      5949  TIP3      H1              6.0291775895       36.6237478317       45.4835870187  TIP3      5749            0.0000000000
     42163      5949  TIP3      H2              5.0886350444       36.0547357770       46.4873619570  TIP3      5749            0.0000000000
     42164      5950  TIP3      OH2            10.7916379948       36.3428870960       47.1508036751  TIP3      5750            0.0000000000
     42165      5950  TIP3      H1             10.8176849430       36.3935671226       46.1975938958  TIP3      5750            0.0000000000
     42166      5950  TIP3      H2             10.4277345037       35.4435777747       47.3212106498  TIP3      5750            0.0000000000
     42167      5951  TIP3      OH2            12.1021921619       36.3678624445       42.8936545601  TIP3      5751            0.0000000000
     42168      5951  TIP3      H1             11.3435391173       36.9154433673       42.6762811090  TIP3      5751            0.0000000000
     42169      5951  TIP3      H2             11.6898313686       35.4931713514       43.0921943726  TIP3      5751            0.0000000000
     42170      5952  TIP3      OH2             1.2846959965       38.0811731533       39.9922038757  TIP3      5752            0.0000000000
     42171      5952  TIP3      H1              1.7689818520       37.4115271073       39.4763675242  TIP3      5752            0.0000000000
     42172      5952  TIP3      H2              1.9657676945       38.3153860490       40.6493242446  TIP3      5752            0.0000000000
     42173      5953  TIP3      OH2             6.3153406604       38.3446562944       42.4194027826  TIP3      5753            0.0000000000
     42174      5953  TIP3      H1              6.5388890785       37.7036672937       43.1229189810  TIP3      5753            0.0000000000
     42175      5953  TIP3      H2              6.2949397435       39.1731545221       42.9182872712  TIP3      5753            0.0000000000
     42176      5954  TIP3      OH2            22.2062982081       39.6200723839       47.1040988675  TIP3      5754            0.0000000000
     42177      5954  TIP3      H1             22.2053296212       40.4972481740       46.6949641113  TIP3      5754            0.0000000000
     42178      5954  TIP3      H2             21.7176767233       39.0878777644       46.4533552072  TIP3      5754            0.0000000000
     42179      5955  TIP3      OH2            30.0094304317      -40.1587455045       45.1679855606  TIP3      5755            0.0000000000
     42180      5955  TIP3      H1             30.4931326305      -40.4108548607       45.9977406672  TIP3      5755            0.0000000000
     42181      5955  TIP3      H2             30.5376737874      -39.4031665778       44.8868158054  TIP3      5755            0.0000000000
     42182      5956  TIP3      OH2            31.5649277774       38.7156920110       47.3525828672  TIP3      5756            0.0000000000
     42183      5956  TIP3      H1             31.3173511204       38.1686425244       48.1067529370  TIP3      5756            0.0000000000
     42184      5956  TIP3      H2             32.2360810780       39.2476822528       47.8258184550  TIP3      5756            0.0000000000
     42185      5957  TIP3      OH2            25.0066752108       35.9628862237       48.6047951874  TIP3      5757            0.0000000000
     42186      5957  TIP3      H1             24.9054926443       34.9922262844       48.5523353417  TIP3      5757            0.0000000000
     42187      5957  TIP3      H2             24.1148415449       36.2540458554       48.8854872386  TIP3      5757            0.0000000000
     42188      5958  TIP3      OH2            33.3102172217       35.8237332190       41.6316401135  TIP3      5758            0.0000000000
     42189      5958  TIP3      H1             32.3741682906       35.9768998733       41.8824563118  TIP3      5758            0.0000000000
     42190      5958  TIP3      H2             33.5307711304       36.6783603408       41.2011961109  TIP3      5758            0.0000000000
     42191      5959  TIP3      OH2            22.3139342229       36.7994449260       49.4266529355  TIP3      5759            0.0000000000
     42192      5959  TIP3      H1             21.4502922278       36.6917175035       48.9708934902  TIP3      5759            0.0000000000
     42193      5959  TIP3      H2             22.2730836904       37.6874964825       49.7933219671  TIP3      5759            0.0000000000
     42194      5960  TIP3      OH2            26.6999472298       38.9847790998       40.0807310548  TIP3      5760            0.0000000000
     42195      5960  TIP3      H1             26.2855457770       39.0413449437       40.9603142296  TIP3      5760            0.0000000000
     42196      5960  TIP3      H2             26.2771739891       38.1690940218       39.7436893335  TIP3      5760            0.0000000000
     42197      5961  TIP3      OH2            23.4721177319       39.3049005170       39.1863288238  TIP3      5761            0.0000000000
     42198      5961  TIP3      H1             23.0302285454       39.0143904934       40.0002668745  TIP3      5761            0.0000000000
     42199      5961  TIP3      H2             22.8139410058       39.8923909844       38.8018044654  TIP3      5761            0.0000000000
     42200      5962  TIP3      OH2            16.7540469088       39.1784534269       46.2773825631  TIP3      5762            0.0000000000
     42201      5962  TIP3      H1             17.4067369496       39.1526356287       47.0105620152  TIP3      5762            0.0000000000
     42202      5962  TIP3      H2             17.2065307359       38.7638631787       45.5145977160  TIP3      5762            0.0000000000
     42203      5963  TIP3      OH2            25.0711902840       38.9431365949       46.5422245841  TIP3      5763            0.0000000000
     42204      5963  TIP3      H1             24.1614430614       39.2317781749       46.7321267658  TIP3      5763            0.0000000000
     42205      5963  TIP3      H2             25.5314351445       39.3930194477       47.2845250052  TIP3      5763            0.0000000000
     42206      5964  TIP3      OH2            29.3755079402       38.5009983664       49.6380451763  TIP3      5764            0.0000000000
     42207      5964  TIP3      H1             28.7673142653       38.7770072496       50.3392245490  TIP3      5764            0.0000000000
     42208      5964  TIP3      H2             28.7597937082       38.4691391987       48.9010028389  TIP3      5764            0.0000000000
     42209      5965  TIP3      OH2            21.2588500657       38.3719039741       44.8439400113  TIP3      5765            0.0000000000
     42210      5965  TIP3      H1             20.9412205948       37.4467460405       44.7903438623  TIP3      5765            0.0000000000
     42211      5965  TIP3      H2             22.0522427074       38.3382633918       44.2949626909  TIP3      5765            0.0000000000
     42212      5966  TIP3      OH2            29.3133964976      -40.1664458756       40.7659638316  TIP3      5766            0.0000000000
     42213      5966  TIP3      H1             28.3746334005      -40.0486148419       40.4999892709  TIP3      5766            0.0000000000
     42214      5966  TIP3      H2             29.6233165844      -39.2654177793       40.9223290754  TIP3      5766            0.0000000000
     42215      5967  TIP3      OH2            28.6598891505       38.6755748561       43.1508959461  TIP3      5767            0.0000000000
     42216      5967  TIP3      H1             28.9573669302       39.0996313476       42.3247447399  TIP3      5767            0.0000000000
     42217      5967  TIP3      H2             29.2157848521       39.0838415777       43.8510556768  TIP3      5767            0.0000000000
     42218      5968  TIP3      OH2            26.7980404809       37.4896779155       44.8748889501  TIP3      5768            0.0000000000
     42219      5968  TIP3      H1             26.4556821374       38.1397531217       45.5338365964  TIP3      5768            0.0000000000
     42220      5968  TIP3      H2             27.4706086675       38.0352720381       44.4170957965  TIP3      5768            0.0000000000
     42221      5969  TIP3      OH2            22.4646069618       38.5640115537       41.5887406931  TIP3      5769            0.0000000000
     42222      5969  TIP3      H1             22.3905537418       39.4522615412       41.9686765965  TIP3      5769            0.0000000000
     42223      5969  TIP3      H2             23.3678785847       38.2893294931       41.8456420874  TIP3      5769            0.0000000000
     42224      5970  TIP3      OH2            19.8192420272       36.4692260031       48.4656234525  TIP3      5770            0.0000000000
     42225      5970  TIP3      H1             19.6278519421       36.4953820706       47.5068145118  TIP3      5770            0.0000000000
     42226      5970  TIP3      H2             19.4496221342       35.6184542035       48.7393777805  TIP3      5770            0.0000000000
     42227      5971  TIP3      OH2            32.6649560520       39.1373200954       38.8397659339  TIP3      5771            0.0000000000
     42228      5971  TIP3      H1             33.2711330163       38.8503976400       39.5495097782  TIP3      5771            0.0000000000
     42229      5971  TIP3      H2             31.8055701813       38.7639153765       39.0766196188  TIP3      5771            0.0000000000
     42230      5972  TIP3      OH2            32.8880515683       38.0213687115       43.9398857215  TIP3      5772            0.0000000000
     42231      5972  TIP3      H1             33.1145904161       37.5897301842       44.7815972425  TIP3      5772            0.0000000000
     42232      5972  TIP3      H2             32.2865449636       37.3924036547       43.4994566054  TIP3      5772            0.0000000000
     42233      5973  TIP3      OH2            18.3541768502       38.7711072703       48.4185194332  TIP3      5773            0.0000000000
     42234      5973  TIP3      H1             18.8319619642       37.9657704157       48.7067636238  TIP3      5773            0.0000000000
     42235      5973  TIP3      H2             18.6445777374       39.4411548787       49.0300547658  TIP3      5773            0.0000000000
     42236      5974  TIP3      OH2            34.7878161427       37.9866653925       40.4937079976  TIP3      5774            0.0000000000
     42237      5974  TIP3      H1             35.1637990998       37.3539509933       39.8637422444  TIP3      5774            0.0000000000
     42238      5974  TIP3      H2             35.3732730535       38.7628662594       40.4539487854  TIP3      5774            0.0000000000
     42239      5975  TIP3      OH2            17.0719485369       38.1879990553       43.6042222654  TIP3      5775            0.0000000000
     42240      5975  TIP3      H1             16.1166332225       38.2841419313       43.4211378985  TIP3      5775            0.0000000000
     42241      5975  TIP3      H2             17.4463284831       38.6557811289       42.8516908813  TIP3      5775            0.0000000000
     42242      5976  TIP3      OH2            27.1913297496       37.7558541741       47.9212562842  TIP3      5776            0.0000000000
     42243      5976  TIP3      H1             26.5060832128       37.1283283477       48.2186158531  TIP3      5776            0.0000000000
     42244      5976  TIP3      H2             27.7160482653       37.1562859401       47.3771718678  TIP3      5776            0.0000000000
     42245      5977  TIP3      OH2            32.2805241458       35.8097341926       47.9813390354  TIP3      5777            0.0000000000
     42246      5977  TIP3      H1             32.8935954997       36.4027520288       47.4870925397  TIP3      5777            0.0000000000
     42247      5977  TIP3      H2             31.4065982536       36.1990869112       47.7850747535  TIP3      5777            0.0000000000
     42248      5978  TIP3      OH2            33.9764810289       36.9756758894       46.3047964422  TIP3      5778            0.0000000000
     42249      5978  TIP3      H1             34.6447657927       36.4361299544       45.8302332724  TIP3      5778            0.0000000000
     42250      5978  TIP3      H2             34.4395446196       37.8380818527       46.3790541105  TIP3      5778            0.0000000000
     42251      5979  TIP3      OH2            19.5278314701       36.3428380133       45.6981688999  TIP3      5779            0.0000000000
     42252      5979  TIP3      H1             18.7154209792       36.1307032647       45.2143486046  TIP3      5779            0.0000000000
     42253      5979  TIP3      H2             19.9798197234       35.4735817161       45.7184510172  TIP3      5779            0.0000000000
     42254      5980  TIP3      OH2            18.3404612918       36.0937108135       41.5305806199  TIP3      5780            0.0000000000
     42255      5980  TIP3      H1             18.7836774932       36.7484446502       40.9586477064  TIP3      5780            0.0000000000
     42256      5980  TIP3      H2             17.7052245526       36.6470926851       42.0191829406  TIP3      5780            0.0000000000
     42257      5981  TIP3      OH2            24.0005577029       36.2217558212       45.5452253785  TIP3      5781            0.0000000000
     42258      5981  TIP3      H1             24.8865253799       36.6220263656       45.4823562415  TIP3      5781            0.0000000000
     42259      5981  TIP3      H2             23.9452202563       36.0528241650       46.4872508808  TIP3      5781            0.0000000000
     42260      5982  TIP3      OH2            29.6517499450       36.3417846508       47.1500505432  TIP3      5782            0.0000000000
     42261      5982  TIP3      H1             29.6734135190       36.3937835930       46.1965923759  TIP3      5782            0.0000000000
     42262      5982  TIP3      H2             29.2837991386       35.4441759465       47.3214282923  TIP3      5782            0.0000000000
     42263      5983  TIP3      OH2            30.9573901462       36.3667199343       42.8928440824  TIP3      5783            0.0000000000
     42264      5983  TIP3      H1             30.1999548633       36.9162240087       42.6761030925  TIP3      5783            0.0000000000
     42265      5983  TIP3      H2             30.5421811308       35.4942251040       43.0938919685  TIP3      5783            0.0000000000
     42266      5984  TIP3      OH2            20.1403004590       38.0804230371       39.9943924857  TIP3      5784            0.0000000000
     42267      5984  TIP3      H1             20.6253644984       37.4117122023       39.4766111629  TIP3      5784            0.0000000000
     42268      5984  TIP3      H2             20.8226969066       38.3155607718       40.6500485838  TIP3      5784            0.0000000000
     42269      5985  TIP3      OH2            25.1706650430       38.3447784458       42.4244395366  TIP3      5785            0.0000000000
     42270      5985  TIP3      H1             25.3957512727       37.7031168826       43.1273067825  TIP3      5785            0.0000000000
     42271      5985  TIP3      H2             25.1518935262       39.1744986531       42.9217818210  TIP3      5785            0.0000000000
     42272      5986  TIP3      OH2            35.6234907432       39.1948334810       46.2690659541  TIP3      5786            0.0000000000
     42273      5986  TIP3      H1             36.2751349568       39.1370356760       47.0033215126  TIP3      5786            0.0000000000
     42274      5986  TIP3      H2             36.0773371798       38.7710509094       45.5172568756  TIP3      5786            0.0000000000
     42275      5987  TIP3      OH2            38.6939736721       36.4647948676       48.5376218454  TIP3      5787            0.0000000000
     42276      5987  TIP3      H1             38.4975088797       36.5575152964       47.5778371104  TIP3      5787            0.0000000000
     42277      5987  TIP3      H2             38.2537527088       35.6478161028       48.7338192739  TIP3      5787            0.0000000000
     42278      5988  TIP3      OH2            37.2067594354       38.7488929576       48.4660688540  TIP3      5788            0.0000000000
     42279      5988  TIP3      H1             37.7582385515       37.9689114525       48.6986741088  TIP3      5788            0.0000000000
     42280      5988  TIP3      H2             37.5294662788       39.4578115712       49.0163877104  TIP3      5788            0.0000000000
     42281      5989  TIP3      OH2            35.9648837733       38.1646530586       43.5680102959  TIP3      5789            0.0000000000
     42282      5989  TIP3      H1             35.0018431696       38.2950489294       43.4282295032  TIP3      5789            0.0000000000
     42283      5989  TIP3      H2             36.3361405407       38.6638085515       42.8400063411  TIP3      5789            0.0000000000
     42284      5990  TIP3      OH2            38.0537447254       36.3808436841       45.8832705365  TIP3      5790            0.0000000000
     42285      5990  TIP3      H1             37.4421505214       36.1565138223       45.1674326317  TIP3      5790            0.0000000000
     42286      5990  TIP3      H2             38.7814479348       35.7477870670       45.7873821492  TIP3      5790            0.0000000000
     42287      5991  TIP3      OH2            37.1890096856       36.1036293481       41.5383351069  TIP3      5791            0.0000000000
     42288      5991  TIP3      H1             37.6282844007       36.7508803674       40.9534038766  TIP3      5791            0.0000000000
     42289      5991  TIP3      H2             36.5421283646       36.6573137563       42.0168761632  TIP3      5791            0.0000000000
     42290      5992  TIP3      OH2            38.9907809956       38.0694250918       40.0530023427  TIP3      5792            0.0000000000
     42291      5992  TIP3      H1             39.4953100394       37.4495726007       39.5081880678  TIP3      5792            0.0000000000
     42292      5992  TIP3      H2             39.6648605658       38.3943775039       40.6584784928  TIP3      5792            0.0000000000
     42293      5993  TIP3      OH2           -27.9724100900      -29.9534107748      -43.2368251198  TIP3      5793            0.0000000000
     42294      5993  TIP3      H1            -27.9718106063      -28.9725071674      -43.2593518138  TIP3      5793            0.0000000000
     42295      5993  TIP3      H2            -28.6916044127      -30.1652179828      -43.8515275074  TIP3      5793            0.0000000000
     42296      5994  TIP3      OH2           -29.0896251181      -30.6578284882      -39.7138505107  TIP3      5794            0.0000000000
     42297      5994  TIP3      H1            -29.1138732924      -31.3090390685      -38.9993630103  TIP3      5794            0.0000000000
     42298      5994  TIP3      H2            -29.4509360047      -31.1606496726      -40.4574357102  TIP3      5794            0.0000000000
     42299      5995  TIP3      OH2           -36.6648056769      -31.0640892399      -38.2151994157  TIP3      5795            0.0000000000
     42300      5995  TIP3      H1            -36.6728450973      -31.7027855022      -37.4726658903  TIP3      5795            0.0000000000
     42301      5995  TIP3      H2            -36.0018485119      -30.4294311235      -37.9121224735  TIP3      5795            0.0000000000
     42302      5996  TIP3      OH2           -25.4189647442      -27.7328967049      -41.4483620459  TIP3      5796            0.0000000000
     42303      5996  TIP3      H1            -25.8399140777      -28.4444901661      -40.9606696205  TIP3      5796            0.0000000000
     42304      5996  TIP3      H2            -25.3947698170      -27.0290226639      -40.7741566425  TIP3      5796            0.0000000000
     42305      5997  TIP3      OH2           -35.8393176333      -26.5757495196      -39.6694203072  TIP3      5797            0.0000000000
     42306      5997  TIP3      H1            -36.1303285602      -27.4429144553      -40.0036268149  TIP3      5797            0.0000000000
     42307      5997  TIP3      H2            -34.8803131884      -26.7415311524      -39.6261893829  TIP3      5797            0.0000000000
     42308      5998  TIP3      OH2           -39.1125200167      -32.9487700883      -44.3443691698  TIP3      5798            0.0000000000
     42309      5998  TIP3      H1            -39.6247110020      -32.1333674035      -44.2331132629  TIP3      5798            0.0000000000
     42310      5998  TIP3      H2            -39.8075348510      -33.5689217497      -44.6090995558  TIP3      5798            0.0000000000
     42311      5999  TIP3      OH2           -38.4135054962      -30.7359511709      -41.9726622916  TIP3      5799            0.0000000000
     42312      5999  TIP3      H1            -38.2260356607      -31.6074553273      -41.5815640067  TIP3      5799            0.0000000000
     42313      5999  TIP3      H2            -37.7666411273      -30.6729521267      -42.6914217321  TIP3      5799            0.0000000000
     42314      6000  TIP3      OH2           -28.3292506094      -22.6102378611      -41.2096759923  TIP3      5800            0.0000000000
     42315      6000  TIP3      H1            -27.6563570627      -23.2774328394      -41.4923397490  TIP3      5800            0.0000000000
     42316      6000  TIP3      H2            -28.5192433080      -22.9280638687      -40.3292226719  TIP3      5800            0.0000000000
     42317      6001  TIP3      OH2           -30.7326837836      -28.2883561715      -39.2537721247  TIP3      5801            0.0000000000
     42318      6001  TIP3      H1            -30.3935052106      -28.9131005831      -39.9133333410  TIP3      5801            0.0000000000
     42319      6001  TIP3      H2            -29.9226294876      -28.1244089646      -38.7392178618  TIP3      5801            0.0000000000
     42320      6002  TIP3      OH2           -22.0854779419      -36.6639834463      -38.5104191452  TIP3      5802            0.0000000000
     42321      6002  TIP3      H1            -21.9770603652      -35.9989518108      -37.7980969400  TIP3      5802            0.0000000000
     42322      6002  TIP3      H2            -21.6025147358      -36.2211869247      -39.2278506448  TIP3      5802            0.0000000000
     42323      6003  TIP3      OH2           -27.6368168176      -33.8657224079      -38.9406386316  TIP3      5803            0.0000000000
     42324      6003  TIP3      H1            -27.3609004218      -34.8078471597      -38.9293178601  TIP3      5803            0.0000000000
     42325      6003  TIP3      H2            -27.6130829724      -33.6736537371      -39.8949197422  TIP3      5803            0.0000000000
     42326      6004  TIP3      OH2           -34.4262878907      -35.7089404586      -41.7452570827  TIP3      5804            0.0000000000
     42327      6004  TIP3      H1            -34.3810713721      -34.8726241293      -42.2493598776  TIP3      5804            0.0000000000
     42328      6004  TIP3      H2            -34.8398428476      -36.3050500200      -42.4183450305  TIP3      5804            0.0000000000
     42329      6005  TIP3      OH2           -26.7075108918      -35.6602347004      -43.3690078243  TIP3      5805            0.0000000000
     42330      6005  TIP3      H1            -26.0546986703      -35.9662171529      -42.6941906645  TIP3      5805            0.0000000000
     42331      6005  TIP3      H2            -26.1410522263      -35.0817810914      -43.9087824419  TIP3      5805            0.0000000000
     42332      6006  TIP3      OH2           -37.7908635712      -33.3450026677      -41.0045246665  TIP3      5806            0.0000000000
     42333      6006  TIP3      H1            -37.1117429896      -33.8796166548      -40.5569152854  TIP3      5806            0.0000000000
     42334      6006  TIP3      H2            -37.7084759320      -33.6557396106      -41.9176568481  TIP3      5806            0.0000000000
     42335      6007  TIP3      OH2           -32.6651469807      -31.7667128873      -41.7023197084  TIP3      5807            0.0000000000
     42336      6007  TIP3      H1            -32.0189910484      -32.3151436022      -41.2494195109  TIP3      5807            0.0000000000
     42337      6007  TIP3      H2            -33.2081050336      -32.4132730007      -42.1926888358  TIP3      5807            0.0000000000
     42338      6008  TIP3      OH2           -21.6587565028      -35.2472336316      -36.2370198586  TIP3      5808            0.0000000000
     42339      6008  TIP3      H1            -22.2874347743      -34.5037392773      -36.4012709295  TIP3      5808            0.0000000000
     42340      6008  TIP3      H2            -21.7128047953      -35.2800077461      -35.2810013970  TIP3      5808            0.0000000000
     42341      6009  TIP3      OH2           -35.5419723442      -36.8261172577      -37.6837610749  TIP3      5809            0.0000000000
     42342      6009  TIP3      H1            -35.8417508679      -36.2900308879      -38.4437528310  TIP3      5809            0.0000000000
     42343      6009  TIP3      H2            -36.2337007055      -36.5977112617      -37.0129464260  TIP3      5809            0.0000000000
     42344      6010  TIP3      OH2           -28.2639705279      -27.3588007103      -44.1435024783  TIP3      5810            0.0000000000
     42345      6010  TIP3      H1            -28.5414776338      -27.6394708057      -45.0278137471  TIP3      5810            0.0000000000
     42346      6010  TIP3      H2            -28.5622873861      -26.4197178731      -44.1027213185  TIP3      5810            0.0000000000
     42347      6011  TIP3      OH2           -33.0402103965      -29.1937294566      -37.4525927018  TIP3      5811            0.0000000000
     42348      6011  TIP3      H1            -33.7478670678      -28.5552738041      -37.2192377443  TIP3      5811            0.0000000000
     42349      6011  TIP3      H2            -32.3308547449      -28.5937720280      -37.7386513666  TIP3      5811            0.0000000000
     42350      6012  TIP3      OH2           -24.9513559992      -36.2498180002      -41.3483233173  TIP3      5812            0.0000000000
     42351      6012  TIP3      H1            -25.0844156304      -37.0759844992      -40.8510069498  TIP3      5812            0.0000000000
     42352      6012  TIP3      H2            -24.2401232557      -35.8619994647      -40.8138418023  TIP3      5812            0.0000000000
     42353      6013  TIP3      OH2           -35.9738758329      -34.9715463802      -39.6568800326  TIP3      5813            0.0000000000
     42354      6013  TIP3      H1            -35.3737105610      -34.2742823306      -39.3149111477  TIP3      5813            0.0000000000
     42355      6013  TIP3      H2            -35.4490946980      -35.3683869284      -40.3962678589  TIP3      5813            0.0000000000
     42356      6014  TIP3      OH2           -34.5767593944      -27.1784483167      -36.6394086647  TIP3      5814            0.0000000000
     42357      6014  TIP3      H1            -34.6225538640      -26.2628955555      -36.9645132024  TIP3      5814            0.0000000000
     42358      6014  TIP3      H2            -35.4628684486      -27.2700553669      -36.2113852956  TIP3      5814            0.0000000000
     42359      6015  TIP3      OH2           -38.4379404558      -27.5375371070      -45.8372774040  TIP3      5815            0.0000000000
     42360      6015  TIP3      H1            -38.7965752462      -27.2649462615      -46.6852796707  TIP3      5815            0.0000000000
     42361      6015  TIP3      H2            -38.4563837805      -26.7223673677      -45.3103996870  TIP3      5815            0.0000000000
     42362      6016  TIP3      OH2           -24.8946035153      -25.9033640294      -39.0761319474  TIP3      5816            0.0000000000
     42363      6016  TIP3      H1            -25.8624052586      -25.7912018928      -38.9581337325  TIP3      5816            0.0000000000
     42364      6016  TIP3      H2            -24.6236469930      -24.9878780175      -39.2812776256  TIP3      5816            0.0000000000
     42365      6017  TIP3      OH2           -24.5315939017      -37.6188779248      -37.6037775501  TIP3      5817            0.0000000000
     42366      6017  TIP3      H1            -25.2916734691      -37.0545885967      -37.7918530868  TIP3      5817            0.0000000000
     42367      6017  TIP3      H2            -23.8706804496      -37.2351513213      -38.2157432576  TIP3      5817            0.0000000000
     42368      6018  TIP3      OH2           -31.5746314437      -39.4731635547      -40.1338016107  TIP3      5818            0.0000000000
     42369      6018  TIP3      H1            -31.6894575601      -40.4366988082      -40.1184051882  TIP3      5818            0.0000000000
     42370      6018  TIP3      H2            -32.4731527063      -39.1765394219      -39.9013493389  TIP3      5818            0.0000000000
     42371      6019  TIP3      OH2           -26.6208720530      -24.1150574307      -42.4733223782  TIP3      5819            0.0000000000
     42372      6019  TIP3      H1            -26.2063551522      -24.8347710320      -42.9953178894  TIP3      5819            0.0000000000
     42373      6019  TIP3      H2            -26.1933202572      -23.3217975527      -42.8695830568  TIP3      5819            0.0000000000
     42374      6020  TIP3      OH2           -25.4233136716      -26.1998999012      -43.9522165732  TIP3      5820            0.0000000000
     42375      6020  TIP3      H1            -25.7123250709      -26.8850217296      -44.5809435885  TIP3      5820            0.0000000000
     42376      6020  TIP3      H2            -25.3891020409      -26.7016610557      -43.1197343095  TIP3      5820            0.0000000000
     42377      6021  TIP3      OH2           -23.8073476731      -27.5939473990      -35.4777011413  TIP3      5821            0.0000000000
     42378      6021  TIP3      H1            -23.6583970994      -28.2490664868      -36.1952317685  TIP3      5821            0.0000000000
     42379      6021  TIP3      H2            -23.6016858464      -26.7520526185      -35.9245073426  TIP3      5821            0.0000000000
     42380      6022  TIP3      OH2           -29.3176376380      -30.6757221462      -45.7096616947  TIP3      5822            0.0000000000
     42381      6022  TIP3      H1            -30.0133376254      -30.0961539867      -46.0848592025  TIP3      5822            0.0000000000
     42382      6022  TIP3      H2            -28.6040028088      -30.5998273059      -46.3746093399  TIP3      5822            0.0000000000
     42383      6023  TIP3      OH2           -29.2124279289      -32.2183895798      -48.6756329132  TIP3      5823            0.0000000000
     42384      6023  TIP3      H1            -28.4892814378      -32.1722242229      -48.0193422548  TIP3      5823            0.0000000000
     42385      6023  TIP3      H2            -28.8728793060      -32.9119334814      -49.2694027573  TIP3      5823            0.0000000000
     42386      6024  TIP3      OH2           -21.9113820417      -31.2825794653      -37.4325535187  TIP3      5824            0.0000000000
     42387      6024  TIP3      H1            -22.5646764018      -30.5572190905      -37.3964344298  TIP3      5824            0.0000000000
     42388      6024  TIP3      H2            -21.4216413294      -31.0494007251      -38.2408704683  TIP3      5824            0.0000000000
     42389      6025  TIP3      OH2           -25.8720302675      -30.4936228340      -44.7769359057  TIP3      5825            0.0000000000
     42390      6025  TIP3      H1            -26.6185993918      -30.2676096829      -44.1651645641  TIP3      5825            0.0000000000
     42391      6025  TIP3      H2            -25.3753310475      -31.1603355517      -44.2720118304  TIP3      5825            0.0000000000
     42392      6026  TIP3      OH2           -25.9331925931      -32.3340588263      -35.6666150041  TIP3      5826            0.0000000000
     42393      6026  TIP3      H1            -25.9214000056      -31.5125781205      -35.1468667982  TIP3      5826            0.0000000000
     42394      6026  TIP3      H2            -26.5591901173      -32.0391943922      -36.3594879769  TIP3      5826            0.0000000000
     42395      6027  TIP3      OH2           -34.2399358926      -29.8186474379      -42.8723572106  TIP3      5827            0.0000000000
     42396      6027  TIP3      H1            -34.5727372984      -30.2135706573      -43.7163529034  TIP3      5827            0.0000000000
     42397      6027  TIP3      H2            -33.6331268731      -30.5142619551      -42.5432733060  TIP3      5827            0.0000000000
     42398      6028  TIP3      OH2           -32.9515278951      -26.4568306374      -40.1818043837  TIP3      5828            0.0000000000
     42399      6028  TIP3      H1            -32.9379360193      -26.9683418485      -41.0024265800  TIP3      5828            0.0000000000
     42400      6028  TIP3      H2            -32.1546944381      -26.8019539199      -39.7362626336  TIP3      5828            0.0000000000
     42401      6029  TIP3      OH2           -33.8819627262      -31.1283581411      -39.2202001783  TIP3      5829            0.0000000000
     42402      6029  TIP3      H1            -33.3676761628      -30.9583622846      -40.0257241358  TIP3      5829            0.0000000000
     42403      6029  TIP3      H2            -33.5682734677      -30.4258290341      -38.6039842396  TIP3      5829            0.0000000000
     42404      6030  TIP3      OH2           -27.5065619751      -25.5140677220      -38.5083491484  TIP3      5830            0.0000000000
     42405      6030  TIP3      H1            -27.7851144950      -24.8826114802      -37.8389131430  TIP3      5830            0.0000000000
     42406      6030  TIP3      H2            -27.7527011697      -26.3698820518      -38.0853891475  TIP3      5830            0.0000000000
     42407      6031  TIP3      OH2           -32.9698252431      -26.6571532935      -34.5240235750  TIP3      5831            0.0000000000
     42408      6031  TIP3      H1            -33.3805653084      -25.9192892462      -34.0312663189  TIP3      5831            0.0000000000
     42409      6031  TIP3      H2            -33.6407107205      -26.8610168057      -35.2185050875  TIP3      5831            0.0000000000
     42410      6032  TIP3      OH2           -27.0222798435      -31.2886074116      -47.1154455867  TIP3      5832            0.0000000000
     42411      6032  TIP3      H1            -26.4452530664      -31.1160709984      -46.3332174715  TIP3      5832            0.0000000000
     42412      6032  TIP3      H2            -26.5358278730      -30.8163775532      -47.8350905324  TIP3      5832            0.0000000000
     42413      6033  TIP3      OH2           -35.9346940394      -30.4146698090      -35.3882516812  TIP3      5833            0.0000000000
     42414      6033  TIP3      H1            -35.9601472777      -29.8000065477      -34.6326842180  TIP3      5833            0.0000000000
     42415      6033  TIP3      H2            -36.9033255668      -30.4851532090      -35.5579796931  TIP3      5833            0.0000000000
     42416      6034  TIP3      OH2           -29.2571674791      -24.5644144877      -43.6727624481  TIP3      5834            0.0000000000
     42417      6034  TIP3      H1            -28.8402922257      -24.2681362944      -42.8534169586  TIP3      5834            0.0000000000
     42418      6034  TIP3      H2            -29.8344943321      -23.8239931241      -43.8871990513  TIP3      5834            0.0000000000
     42419      6035  TIP3      OH2           -34.7180543392      -24.6389730816      -33.7712680577  TIP3      5835            0.0000000000
     42420      6035  TIP3      H1            -34.7747373336      -24.7252541045      -34.7420383717  TIP3      5835            0.0000000000
     42421      6035  TIP3      H2            -35.6485462568      -24.7481470316      -33.5063637477  TIP3      5835            0.0000000000
     42422      6036  TIP3      OH2           -23.2301497385      -39.5326953924      -47.2450551121  TIP3      5836            0.0000000000
     42423      6036  TIP3      H1            -24.1549216670      -39.4623203624      -46.9468756024  TIP3      5836            0.0000000000
     42424      6036  TIP3      H2            -23.0697054663      -38.6964025028      -47.6998583665  TIP3      5836            0.0000000000
     42425      6037  TIP3      OH2           -35.2758972447      -30.8126114082      -45.2425019558  TIP3      5837            0.0000000000
     42426      6037  TIP3      H1            -35.5759303107      -30.0448128545      -45.7704584464  TIP3      5837            0.0000000000
     42427      6037  TIP3      H2            -35.9289333486      -31.4767071551      -45.4700459234  TIP3      5837            0.0000000000
     42428      6038  TIP3      OH2           -22.1788058423      -25.1837336744      -48.7507057918  TIP3      5838            0.0000000000
     42429      6038  TIP3      H1            -22.0118123774      -24.2307479959      -48.6697490336  TIP3      5838            0.0000000000
     42430      6038  TIP3      H2            -21.2884854473      -25.5607032863      -48.8594331356  TIP3      5838            0.0000000000
     42431      6039  TIP3      OH2           -39.0234585369      -28.3955160191      -36.4695174259  TIP3      5839            0.0000000000
     42432      6039  TIP3      H1            -39.6229200823      -28.3931027919      -37.2330961000  TIP3      5839            0.0000000000
     42433      6039  TIP3      H2            -39.1438136619      -29.3001811967      -36.1660272014  TIP3      5839            0.0000000000
     42434      6040  TIP3      OH2           -38.9518133626      -25.0139139450      -39.8264605919  TIP3      5840            0.0000000000
     42435      6040  TIP3      H1            -38.3104647051      -25.6929869891      -39.5695753943  TIP3      5840            0.0000000000
     42436      6040  TIP3      H2            -39.4431642385      -24.9022927128      -39.0002743095  TIP3      5840            0.0000000000
     42437      6041  TIP3      OH2           -21.1858253520      -24.9446370341      -33.8927703689  TIP3      5841            0.0000000000
     42438      6041  TIP3      H1            -21.3063898255      -25.9052176961      -33.9238435346  TIP3      5841            0.0000000000
     42439      6041  TIP3      H2            -22.0613928275      -24.6978924401      -33.5104652120  TIP3      5841            0.0000000000
     42440      6042  TIP3      OH2           -30.2316124139      -25.4080303650      -35.0347293105  TIP3      5842            0.0000000000
     42441      6042  TIP3      H1            -30.1736684199      -24.5655106558      -34.5261315002  TIP3      5842            0.0000000000
     42442      6042  TIP3      H2            -31.1045635193      -25.7654942934      -34.7826433028  TIP3      5842            0.0000000000
     42443      6043  TIP3      OH2           -29.8140617389      -21.6655777281      -45.2405924760  TIP3      5843            0.0000000000
     42444      6043  TIP3      H1            -29.8626757045      -21.7313116380      -46.2035232747  TIP3      5843            0.0000000000
     42445      6043  TIP3      H2            -29.7687907670      -20.7084126561      -45.0719474587  TIP3      5843            0.0000000000
     42446      6044  TIP3      OH2           -36.1689856797      -22.7683533547      -43.4106781804  TIP3      5844            0.0000000000
     42447      6044  TIP3      H1            -35.9967663649      -23.1979021040      -42.5469318843  TIP3      5844            0.0000000000
     42448      6044  TIP3      H2            -36.9934470901      -23.2044442105      -43.6668742712  TIP3      5844            0.0000000000
     42449      6045  TIP3      OH2           -26.8478394680      -22.3840611093      -48.2105600695  TIP3      5845            0.0000000000
     42450      6045  TIP3      H1            -26.3554699144      -23.1215655564      -48.6592502926  TIP3      5845            0.0000000000
     42451      6045  TIP3      H2            -26.7028953439      -22.6897842105      -47.3002219801  TIP3      5845            0.0000000000
     42452      6046  TIP3      OH2           -27.0558535444      -22.5052285857      -45.4316968147  TIP3      5846            0.0000000000
     42453      6046  TIP3      H1            -28.0162364526      -22.4487067016      -45.2815096897  TIP3      5846            0.0000000000
     42454      6046  TIP3      H2            -26.8129299705      -23.2720972928      -44.8980469456  TIP3      5846            0.0000000000
     42455      6047  TIP3      OH2           -24.0270798504      -33.4710871458      -33.4333352928  TIP3      5847            0.0000000000
     42456      6047  TIP3      H1            -24.5132185893      -33.0152400345      -34.1383111473  TIP3      5847            0.0000000000
     42457      6047  TIP3      H2            -24.0834603157      -34.3923757982      -33.7264678690  TIP3      5847            0.0000000000
     42458      6048  TIP3      OH2           -36.9202635484      -27.0368848647      -35.4256836666  TIP3      5848            0.0000000000
     42459      6048  TIP3      H1            -36.7301796960      -27.4308710997      -34.5527738301  TIP3      5848            0.0000000000
     42460      6048  TIP3      H2            -37.7850003078      -27.4522406887      -35.6572071199  TIP3      5848            0.0000000000
     42461      6049  TIP3      OH2           -34.1719742573      -38.5698482671      -39.4298886532  TIP3      5849            0.0000000000
     42462      6049  TIP3      H1            -35.0636445165      -38.6973958312      -39.8348472144  TIP3      5849            0.0000000000
     42463      6049  TIP3      H2            -34.3691325994      -37.7614948423      -38.9427166351  TIP3      5849            0.0000000000
     42464      6050  TIP3      OH2           -29.6519708859      -38.6368168840      -35.8461269318  TIP3      5850            0.0000000000
     42465      6050  TIP3      H1            -29.1756831707      -39.3379894357      -35.3829612459  TIP3      5850            0.0000000000
     42466      6050  TIP3      H2            -30.5504771737      -39.0233158204      -35.9688796627  TIP3      5850            0.0000000000
     42467      6051  TIP3      OH2           -26.2913322462      -35.1108096228      -35.2143409081  TIP3      5851            0.0000000000
     42468      6051  TIP3      H1            -26.8591935717      -35.2724699523      -34.4251901109  TIP3      5851            0.0000000000
     42469      6051  TIP3      H2            -26.4605060093      -34.1818066222      -35.4517810589  TIP3      5851            0.0000000000
     42470      6052  TIP3      OH2           -25.2905703866      -30.3787925617      -48.9170542029  TIP3      5852            0.0000000000
     42471      6052  TIP3      H1            -25.4301575511      -30.5084396722      -49.8701472244  TIP3      5852            0.0000000000
     42472      6052  TIP3      H2            -24.5199465710      -29.7950134953      -49.0556334709  TIP3      5852            0.0000000000
     42473      6053  TIP3      OH2           -29.8861755137      -36.3724067218      -48.7628463770  TIP3      5853            0.0000000000
     42474      6053  TIP3      H1            -30.2567205614      -36.4044263565      -47.8586303247  TIP3      5853            0.0000000000
     42475      6053  TIP3      H2            -30.2286316515      -37.2201342567      -49.0842217705  TIP3      5853            0.0000000000
     42476      6054  TIP3      OH2           -34.0785048165      -33.6357026122      -38.2318053619  TIP3      5854            0.0000000000
     42477      6054  TIP3      H1            -34.8122878950      -33.6528338104      -37.5823432558  TIP3      5854            0.0000000000
     42478      6054  TIP3      H2            -34.1791934836      -32.7149029157      -38.5740153369  TIP3      5854            0.0000000000
     42479      6055  TIP3      OH2           -34.1362631800      -33.5558070964      -43.3473256802  TIP3      5855            0.0000000000
     42480      6055  TIP3      H1            -35.0879466744      -33.7300092848      -43.4937546836  TIP3      5855            0.0000000000
     42481      6055  TIP3      H2            -33.7979605713      -33.7797633276      -44.2392363930  TIP3      5855            0.0000000000
     42482      6056  TIP3      OH2           -28.6496911302      -32.9956458763      -44.5995390894  TIP3      5856            0.0000000000
     42483      6056  TIP3      H1            -29.0216938520      -32.1620627747      -44.9684838746  TIP3      5856            0.0000000000
     42484      6056  TIP3      H2            -27.9364066022      -33.1730862930      -45.2456235418  TIP3      5856            0.0000000000
     42485      6057  TIP3      OH2           -29.5831216280      -32.7868684906      -33.1528886715  TIP3      5857            0.0000000000
     42486      6057  TIP3      H1            -30.1054865482      -33.5697146313      -32.8460433692  TIP3      5857            0.0000000000
     42487      6057  TIP3      H2            -28.7468290341      -32.9110500073      -32.6728388396  TIP3      5857            0.0000000000
     42488      6058  TIP3      OH2           -27.7286915183      -33.5631633395      -41.7350568325  TIP3      5858            0.0000000000
     42489      6058  TIP3      H1            -27.8410940042      -32.9406109690      -42.4821645808  TIP3      5858            0.0000000000
     42490      6058  TIP3      H2            -27.4568870866      -34.3638310941      -42.2317700377  TIP3      5858            0.0000000000
     42491      6059  TIP3      OH2           -36.4465181293      -33.3920655488      -36.5379620812  TIP3      5859            0.0000000000
     42492      6059  TIP3      H1            -36.4521025514      -32.9537030620      -35.6689219055  TIP3      5859            0.0000000000
     42493      6059  TIP3      H2            -36.9534268313      -34.1920346316      -36.3457455589  TIP3      5859            0.0000000000
     42494      6060  TIP3      OH2           -33.1025450668      -35.9617433797      -49.6788975232  TIP3      5860            0.0000000000
     42495      6060  TIP3      H1            -33.5212581242      -36.3811883941      -48.9081948559  TIP3      5860            0.0000000000
     42496      6060  TIP3      H2            -33.8238715341      -35.5858469405      -50.1827802574  TIP3      5860            0.0000000000
     42497      6061  TIP3      OH2           -39.8299657028      -36.2736983879      -42.6128770630  TIP3      5861            0.0000000000
     42498      6061  TIP3      H1            -39.1734750493      -36.3403904210      -41.8974361356  TIP3      5861            0.0000000000
     42499      6061  TIP3      H2            -39.3895105452      -36.7120571311      -43.3525128863  TIP3      5861            0.0000000000
     42500      6062  TIP3      OH2           -38.5751846723      -35.4930262663      -47.1814806618  TIP3      5862            0.0000000000
     42501      6062  TIP3      H1            -38.0257118381      -34.9156592269      -47.7489512041  TIP3      5862            0.0000000000
     42502      6062  TIP3      H2            -39.2709121634      -34.8902882368      -46.9105041275  TIP3      5862            0.0000000000
     42503      6063  TIP3      OH2           -28.4330010158      -31.9324650885      -37.2040230058  TIP3      5863            0.0000000000
     42504      6063  TIP3      H1            -28.0276847676      -32.6202451993      -37.7673635570  TIP3      5863            0.0000000000
     42505      6063  TIP3      H2            -28.8655287751      -32.4487102624      -36.4984035698  TIP3      5863            0.0000000000
     42506      6064  TIP3      OH2           -31.6896078148      -36.0370957467      -42.4060071351  TIP3      5864            0.0000000000
     42507      6064  TIP3      H1            -32.6421957955      -36.0630550010      -42.1344835408  TIP3      5864            0.0000000000
     42508      6064  TIP3      H2            -31.2451827107      -36.4655413555      -41.6524894955  TIP3      5864            0.0000000000
     42509      6065  TIP3      OH2           -36.7858492930      -34.4023460543      -43.4684904224  TIP3      5865            0.0000000000
     42510      6065  TIP3      H1            -37.6572863416      -34.2425718490      -43.8664517034  TIP3      5865            0.0000000000
     42511      6065  TIP3      H2            -36.5141229347      -35.2368386683      -43.8875081797  TIP3      5865            0.0000000000
     42512      6066  TIP3      OH2           -33.1450427913      -34.3489990709      -45.8087315870  TIP3      5866            0.0000000000
     42513      6066  TIP3      H1            -32.1824948114      -34.2590626714      -45.7003191140  TIP3      5866            0.0000000000
     42514      6066  TIP3      H2            -33.3865880811      -33.7043304628      -46.5033151354  TIP3      5866            0.0000000000
     42515      6067  TIP3      OH2           -27.2034759066      -36.7274066396      -39.1206846672  TIP3      5867            0.0000000000
     42516      6067  TIP3      H1            -27.8770457800      -36.6732004029      -38.4033585190  TIP3      5867            0.0000000000
     42517      6067  TIP3      H2            -27.6796622331      -37.0517015204      -39.8945119943  TIP3      5867            0.0000000000
     42518      6068  TIP3      OH2           -34.4045827287      -33.1735418594      -48.2341734282  TIP3      5868            0.0000000000
     42519      6068  TIP3      H1            -35.0020777687      -33.5152637867      -48.9027032897  TIP3      5868            0.0000000000
     42520      6068  TIP3      H2            -33.6089529183      -32.9575281140      -48.7421087108  TIP3      5868            0.0000000000
     42521      6069  TIP3      OH2           -23.9999323436      -21.0751100777      -32.7832631932  TIP3      5869            0.0000000000
     42522      6069  TIP3      H1            -23.7335635179      -20.6919551883      -33.6385136224  TIP3      5869            0.0000000000
     42523      6069  TIP3      H2            -23.2749573164      -20.7547774261      -32.2252905552  TIP3      5869            0.0000000000
     42524      6070  TIP3      OH2           -36.3074870897      -28.6059232066      -33.1964885801  TIP3      5870            0.0000000000
     42525      6070  TIP3      H1            -35.5703329821      -28.3688826600      -32.6029925448  TIP3      5870            0.0000000000
     42526      6070  TIP3      H2            -37.0731828939      -28.5211244836      -32.5956342123  TIP3      5870            0.0000000000
     42527      6071  TIP3      OH2           -30.2325333129      -32.9496729779      -40.3165582835  TIP3      5871            0.0000000000
     42528      6071  TIP3      H1            -29.5482358750      -33.3820431646      -40.8558859736  TIP3      5871            0.0000000000
     42529      6071  TIP3      H2            -30.3904518368      -33.4917844135      -39.5200316580  TIP3      5871            0.0000000000
     42530      6072  TIP3      OH2           -35.2954355292      -37.0561500091      -43.9742341633  TIP3      5872            0.0000000000
     42531      6072  TIP3      H1            -35.6495074552      -37.9644638629      -44.0069863986  TIP3      5872            0.0000000000
     42532      6072  TIP3      H2            -34.5339497203      -37.1360835394      -44.5603927092  TIP3      5872            0.0000000000
     42533      6073  TIP3      OH2           -31.6321933855      -34.8061363472      -38.1283396025  TIP3      5873            0.0000000000
     42534      6073  TIP3      H1            -32.5040424711      -34.3783725028      -37.9346926826  TIP3      5873            0.0000000000
     42535      6073  TIP3      H2            -31.1326411213      -34.5513355029      -37.3190007054  TIP3      5873            0.0000000000
     42536      6074  TIP3      OH2           -31.0835323881      -28.6536379744      -46.3318156406  TIP3      5874            0.0000000000
     42537      6074  TIP3      H1            -31.8898176188      -29.1037578315      -46.6612995247  TIP3      5874            0.0000000000
     42538      6074  TIP3      H2            -31.3103396508      -28.5140863596      -45.3895736087  TIP3      5874            0.0000000000
     42539      6075  TIP3      OH2           -23.9052828093      -29.4408306309      -37.5414614139  TIP3      5875            0.0000000000
     42540      6075  TIP3      H1            -23.3450244690      -28.9566164483      -38.1750998004  TIP3      5875            0.0000000000
     42541      6075  TIP3      H2            -24.7665144556      -29.3981882613      -38.0044360780  TIP3      5875            0.0000000000
     42542      6076  TIP3      OH2           -27.3231852526      -35.8012841055      -47.9728606383  TIP3      5876            0.0000000000
     42543      6076  TIP3      H1            -28.2301757543      -35.6420854151      -48.2789907654  TIP3      5876            0.0000000000
     42544      6076  TIP3      H2            -26.9575927203      -34.9038700819      -47.8380747954  TIP3      5876            0.0000000000
     42545      6077  TIP3      OH2           -29.6026843408      -28.3735277595      -35.0985283581  TIP3      5877            0.0000000000
     42546      6077  TIP3      H1            -29.9497076765      -28.8037339844      -34.3102191416  TIP3      5877            0.0000000000
     42547      6077  TIP3      H2            -29.8605048985      -27.4524627962      -34.9916036322  TIP3      5877            0.0000000000
     42548      6078  TIP3      OH2           -26.5303818820      -33.8709761116      -46.4844122579  TIP3      5878            0.0000000000
     42549      6078  TIP3      H1            -25.6398134557      -34.0362481743      -46.1151782727  TIP3      5878            0.0000000000
     42550      6078  TIP3      H2            -26.4211229162      -33.0812808073      -47.0413765700  TIP3      5878            0.0000000000
     42551      6079  TIP3      OH2           -35.9774832697      -29.2414851204      -40.5387389662  TIP3      5879            0.0000000000
     42552      6079  TIP3      H1            -35.3074867365      -29.3244752272      -41.2408719130  TIP3      5879            0.0000000000
     42553      6079  TIP3      H2            -35.9219932275      -30.1096974233      -40.1021415810  TIP3      5879            0.0000000000
     42554      6080  TIP3      OH2           -28.9542746218      -27.1719282854      -47.2960331202  TIP3      5880            0.0000000000
     42555      6080  TIP3      H1            -29.3287123887      -26.3300975988      -46.9660563726  TIP3      5880            0.0000000000
     42556      6080  TIP3      H2            -29.7132335441      -27.7722943867      -47.1293492273  TIP3      5880            0.0000000000
     42557      6081  TIP3      OH2           -38.4567959784      -31.2278061770      -35.3948182359  TIP3      5881            0.0000000000
     42558      6081  TIP3      H1            -38.6609778471      -31.3055396631      -34.4362101819  TIP3      5881            0.0000000000
     42559      6081  TIP3      H2            -39.3887757632      -31.3166641049      -35.6953938122  TIP3      5881            0.0000000000
     42560      6082  TIP3      OH2           -31.9818209021      -31.2817492760      -33.1115129990  TIP3      5882            0.0000000000
     42561      6082  TIP3      H1            -32.3039806360      -31.5978027037      -33.9680676599  TIP3      5882            0.0000000000
     42562      6082  TIP3      H2            -31.0610827368      -31.6115466668      -33.1097766911  TIP3      5882            0.0000000000
     42563      6083  TIP3      OH2           -27.2949999148      -25.9506614920      -35.1501386171  TIP3      5883            0.0000000000
     42564      6083  TIP3      H1            -28.2203056469      -25.7733429150      -35.3846994062  TIP3      5883            0.0000000000
     42565      6083  TIP3      H2            -27.3292894291      -25.6569217470      -34.2197269101  TIP3      5883            0.0000000000
     42566      6084  TIP3      OH2           -21.5944229158      -33.7683514374      -46.7338884647  TIP3      5884            0.0000000000
     42567      6084  TIP3      H1            -22.1812869248      -34.0378300401      -47.4763367763  TIP3      5884            0.0000000000
     42568      6084  TIP3      H2            -21.5373949276      -32.8227138710      -46.9921660834  TIP3      5884            0.0000000000
     42569      6085  TIP3      OH2           -21.6421922191      -27.9085793793      -33.9598324861  TIP3      5885            0.0000000000
     42570      6085  TIP3      H1            -22.5351863215      -27.6879793992      -34.3241846875  TIP3      5885            0.0000000000
     42571      6085  TIP3      H2            -21.0967729214      -27.9613446675      -34.7714365358  TIP3      5885            0.0000000000
     42572      6086  TIP3      OH2           -23.3231796535      -24.9675543271      -46.3605023512  TIP3      5886            0.0000000000
     42573      6086  TIP3      H1            -23.7234319582      -25.7902981790      -46.0618080866  TIP3      5886            0.0000000000
     42574      6086  TIP3      H2            -23.0484288970      -25.1665179164      -47.2758150704  TIP3      5886            0.0000000000
     42575      6087  TIP3      OH2           -26.1291565415      -30.1268489413      -39.2586779797  TIP3      5887            0.0000000000
     42576      6087  TIP3      H1            -27.0723455091      -30.3309172149      -39.3676728044  TIP3      5887            0.0000000000
     42577      6087  TIP3      H2            -25.7004463322      -30.8853904710      -39.6972765784  TIP3      5887            0.0000000000
     42578      6088  TIP3      OH2           -33.6256845909      -25.7963788076      -43.1413586607  TIP3      5888            0.0000000000
     42579      6088  TIP3      H1            -33.1204205095      -24.9926590133      -43.3619422803  TIP3      5888            0.0000000000
     42580      6088  TIP3      H2            -34.5048744052      -25.5586771655      -43.4637198571  TIP3      5888            0.0000000000
     42581      6089  TIP3      OH2           -37.7909113031      -31.0690365132      -48.3678788738  TIP3      5889            0.0000000000
     42582      6089  TIP3      H1            -37.2226095646      -30.3058327400      -48.1407792957  TIP3      5889            0.0000000000
     42583      6089  TIP3      H2            -38.6738741622      -30.6589540438      -48.3299035007  TIP3      5889            0.0000000000
     42584      6090  TIP3      OH2           -32.1890711267      -28.1346089630      -43.6310643298  TIP3      5890            0.0000000000
     42585      6090  TIP3      H1            -32.5132400520      -27.2145429497      -43.5570730027  TIP3      5890            0.0000000000
     42586      6090  TIP3      H2            -32.9134927621      -28.6249923465      -43.1938208040  TIP3      5890            0.0000000000
     42587      6091  TIP3      OH2           -31.7666791328      -23.9417805564      -37.2239333448  TIP3      5891            0.0000000000
     42588      6091  TIP3      H1            -31.3004198432      -23.1444867351      -37.5218064146  TIP3      5891            0.0000000000
     42589      6091  TIP3      H2            -31.1345930623      -24.2909179385      -36.5688015574  TIP3      5891            0.0000000000
     42590      6092  TIP3      OH2           -33.5153978859      -23.1518530201      -44.0583649059  TIP3      5892            0.0000000000
     42591      6092  TIP3      H1            -34.4816636796      -23.0080808284      -43.9637893492  TIP3      5892            0.0000000000
     42592      6092  TIP3      H2            -33.1514291518      -22.2989646348      -43.7543993209  TIP3      5892            0.0000000000
     42593      6093  TIP3      OH2           -28.2266463110      -27.9485563157      -37.6136005690  TIP3      5893            0.0000000000
     42594      6093  TIP3      H1            -28.5470860317      -28.1420388366      -36.7077124499  TIP3      5893            0.0000000000
     42595      6093  TIP3      H2            -27.5813037490      -28.6548932606      -37.7800145483  TIP3      5893            0.0000000000
     42596      6094  TIP3      OH2           -25.9713944891      -26.9122120835      -48.4262655516  TIP3      5894            0.0000000000
     42597      6094  TIP3      H1            -25.6362224051      -27.4077955698      -47.6613659437  TIP3      5894            0.0000000000
     42598      6094  TIP3      H2            -26.9137457038      -27.1007241722      -48.3516110866  TIP3      5894            0.0000000000
     42599      6095  TIP3      OH2           -25.4023518402      -23.3672034541      -35.1278043953  TIP3      5895            0.0000000000
     42600      6095  TIP3      H1            -26.0970268826      -23.8599652965      -35.6041913397  TIP3      5895            0.0000000000
     42601      6095  TIP3      H2            -25.2221576368      -22.6659349106      -35.7880142358  TIP3      5895            0.0000000000
     42602      6096  TIP3      OH2           -21.4169193990      -22.4694232822      -48.3128246803  TIP3      5896            0.0000000000
     42603      6096  TIP3      H1            -20.7090713618      -21.8185756345      -48.4543398198  TIP3      5896            0.0000000000
     42604      6096  TIP3      H2            -22.1370974783      -21.8872042574      -47.9697744650  TIP3      5896            0.0000000000
     42605      6097  TIP3      OH2           -37.3568642292      -36.1225612497      -35.7622101751  TIP3      5897            0.0000000000
     42606      6097  TIP3      H1            -38.2513717923      -35.7670732794      -35.7206503509  TIP3      5897            0.0000000000
     42607      6097  TIP3      H2            -37.4642095860      -36.9703780511      -35.2958625440  TIP3      5897            0.0000000000
     42608      6098  TIP3      OH2           -25.1000190074      -28.2303160136      -46.2735612487  TIP3      5898            0.0000000000
     42609      6098  TIP3      H1            -25.3386442499      -29.0442677548      -45.7910280452  TIP3      5898            0.0000000000
     42610      6098  TIP3      H2            -24.1480744949      -28.1942841185      -46.1060383520  TIP3      5898            0.0000000000
     42611      6099  TIP3      OH2           -37.7582450768      -24.3343067617      -37.2935296219  TIP3      5899            0.0000000000
     42612      6099  TIP3      H1            -37.4076855392      -25.2357144831      -37.3119361749  TIP3      5899            0.0000000000
     42613      6099  TIP3      H2            -37.4536680564      -24.0427177597      -36.4301809024  TIP3      5899            0.0000000000
     42614      6100  TIP3      OH2           -32.9716182045      -26.2536025500      -47.5911754501  TIP3      5900            0.0000000000
     42615      6100  TIP3      H1            -32.7425897858      -26.7978641895      -46.8334630011  TIP3      5900            0.0000000000
     42616      6100  TIP3      H2            -32.9210150082      -25.3366086015      -47.2524383413  TIP3      5900            0.0000000000
     42617      6101  TIP3      OH2           -36.5182102652      -29.0318043865      -47.1698023237  TIP3      5901            0.0000000000
     42618      6101  TIP3      H1            -37.1702874494      -28.6435892143      -46.5445137829  TIP3      5901            0.0000000000
     42619      6101  TIP3      H2            -35.9565525840      -28.2571317413      -47.3571309517  TIP3      5901            0.0000000000
     42620      6102  TIP3      OH2           -28.6073784434      -36.3442841090      -36.7889544140  TIP3      5902            0.0000000000
     42621      6102  TIP3      H1            -27.8934243276      -36.3073285925      -36.1330508271  TIP3      5902            0.0000000000
     42622      6102  TIP3      H2            -29.0148669608      -37.2173371812      -36.5662782902  TIP3      5902            0.0000000000
     42623      6103  TIP3      OH2           -27.8031983006      -36.8360149700      -45.6258608376  TIP3      5903            0.0000000000
     42624      6103  TIP3      H1            -27.6619767985      -36.3020486064      -46.4448767746  TIP3      5903            0.0000000000
     42625      6103  TIP3      H2            -27.2706572946      -36.2995294628      -45.0255863879  TIP3      5903            0.0000000000
     42626      6104  TIP3      OH2           -30.1725905958      -24.6085477255      -46.8956801766  TIP3      5904            0.0000000000
     42627      6104  TIP3      H1            -30.9990884833      -24.1028972450      -46.7935524097  TIP3      5904            0.0000000000
     42628      6104  TIP3      H2            -29.6546526555      -24.0555504915      -47.4893512337  TIP3      5904            0.0000000000
     42629      6105  TIP3      OH2           -30.6174047701      -35.0374074860      -44.8691747654  TIP3      5905            0.0000000000
     42630      6105  TIP3      H1            -29.8452759130      -34.4394927711      -44.8591782489  TIP3      5905            0.0000000000
     42631      6105  TIP3      H2            -30.8981914090      -35.1353307379      -43.9517867149  TIP3      5905            0.0000000000
     42632      6106  TIP3      OH2           -30.0701085920      -33.9999241925      -35.6993546863  TIP3      5906            0.0000000000
     42633      6106  TIP3      H1            -30.0136890501      -33.4510388287      -34.8897841772  TIP3      5906            0.0000000000
     42634      6106  TIP3      H2            -29.4278914368      -34.7102673605      -35.5643960991  TIP3      5906            0.0000000000
     42635      6107  TIP3      OH2           -29.8153766072      -37.9605041545      -43.9062048743  TIP3      5907            0.0000000000
     42636      6107  TIP3      H1            -30.1361549701      -37.2694980964      -43.3220335339  TIP3      5907            0.0000000000
     42637      6107  TIP3      H2            -29.1326183996      -37.4848169341      -44.4416365530  TIP3      5907            0.0000000000
     42638      6108  TIP3      OH2           -32.8087780458      -23.5571368066      -46.8130241899  TIP3      5908            0.0000000000
     42639      6108  TIP3      H1            -32.6287609434      -22.7431370441      -47.3373924470  TIP3      5908            0.0000000000
     42640      6108  TIP3      H2            -33.0645665972      -23.2011762876      -45.9403960698  TIP3      5908            0.0000000000
     42641      6109  TIP3      OH2           -34.1376538240      -36.7880114062      -47.2582672082  TIP3      5909            0.0000000000
     42642      6109  TIP3      H1            -34.1627087665      -35.9084995645      -46.8414657568  TIP3      5909            0.0000000000
     42643      6109  TIP3      H2            -33.2430759436      -37.0822113532      -47.0079530577  TIP3      5909            0.0000000000
     42644      6110  TIP3      OH2           -23.8862080195      -36.1094678550      -34.8528306419  TIP3      5910            0.0000000000
     42645      6110  TIP3      H1            -24.8344694961      -35.8308755969      -34.9513778456  TIP3      5910            0.0000000000
     42646      6110  TIP3      H2            -23.6350627338      -36.1385321065      -35.7897878354  TIP3      5910            0.0000000000
     42647      6111  TIP3      OH2           -25.3123496781      -32.3446432888      -40.8108180177  TIP3      5911            0.0000000000
     42648      6111  TIP3      H1            -26.1189438494      -32.7869483349      -41.1069732836  TIP3      5911            0.0000000000
     42649      6111  TIP3      H2            -24.8167555182      -33.0367798633      -40.3119875380  TIP3      5911            0.0000000000
     42650      6112  TIP3      OH2           -35.7940996891      -26.4488488370      -48.1067043823  TIP3      5912            0.0000000000
     42651      6112  TIP3      H1            -35.1729117919      -25.7365251720      -47.9255142226  TIP3      5912            0.0000000000
     42652      6112  TIP3      H2            -35.3974720159      -26.8234255141      -48.9200049481  TIP3      5912            0.0000000000
     42653      6113  TIP3      OH2           -37.5512832353      -33.7200394475      -48.9915806253  TIP3      5913            0.0000000000
     42654      6113  TIP3      H1            -37.5462497601      -32.7503066528      -48.8569049401  TIP3      5913            0.0000000000
     42655      6113  TIP3      H2            -38.4134014260      -33.9176340119      -49.3798862948  TIP3      5913            0.0000000000
     42656      6114  TIP3      OH2           -24.2218144441      -23.1013799549      -39.1491277545  TIP3      5914            0.0000000000
     42657      6114  TIP3      H1            -24.3261175677      -22.4095925331      -39.8375123850  TIP3      5914            0.0000000000
     42658      6114  TIP3      H2            -23.2611782942      -23.0153962717      -38.9790881042  TIP3      5914            0.0000000000
     42659      6115  TIP3      OH2           -36.6898940590      -38.8186707219      -40.3672766672  TIP3      5915            0.0000000000
     42660      6115  TIP3      H1            -36.8785824963      -38.8595535957      -41.3351589308  TIP3      5915            0.0000000000
     42661      6115  TIP3      H2            -37.0173275778      -39.6945638823      -40.1673681458  TIP3      5915            0.0000000000
     42662      6116  TIP3      OH2           -37.7604501092      -25.0303226331      -44.1896055701  TIP3      5916            0.0000000000
     42663      6116  TIP3      H1            -38.6156614645      -24.5792536302      -44.2344075777  TIP3      5916            0.0000000000
     42664      6116  TIP3      H2            -37.2704759890      -24.5588291711      -44.8727704844  TIP3      5916            0.0000000000
     42665      6117  TIP3      OH2           -38.5582089214      -22.3686294344      -32.9210825613  TIP3      5917            0.0000000000
     42666      6117  TIP3      H1            -37.9590219433      -22.5836390999      -32.1832728157  TIP3      5917            0.0000000000
     42667      6117  TIP3      H2            -38.9894241787      -23.2145324943      -33.0789282714  TIP3      5917            0.0000000000
     42668      6118  TIP3      OH2           -33.9056411093      -23.4532357953      -31.2989661691  TIP3      5918            0.0000000000
     42669      6118  TIP3      H1            -33.1615182122      -23.9732178439      -30.9682353490  TIP3      5918            0.0000000000
     42670      6118  TIP3      H2            -33.9437824804      -23.7518384644      -32.2314458641  TIP3      5918            0.0000000000
     42671      6119  TIP3      OH2           -29.8441738367      -24.0117713845      -49.9804626461  TIP3      5919            0.0000000000
     42672      6119  TIP3      H1            -30.4648815811      -24.6622879752      -49.6373642697  TIP3      5919            0.0000000000
     42673      6119  TIP3      H2            -29.0489294026      -24.5426644000      -50.1151135391  TIP3      5919            0.0000000000
     42674      6120  TIP3      OH2           -27.3951819805      -25.0797770319      -32.5565645225  TIP3      5920            0.0000000000
     42675      6120  TIP3      H1            -27.7097305141      -25.9671863493      -32.2817528295  TIP3      5920            0.0000000000
     42676      6120  TIP3      H2            -26.6260445948      -24.9608691965      -31.9647449180  TIP3      5920            0.0000000000
     42677      6121  TIP3      OH2           -25.6040564884      -24.3186837242      -49.3063149350  TIP3      5921            0.0000000000
     42678      6121  TIP3      H1            -25.0449207625      -25.0421824806      -48.9770489015  TIP3      5921            0.0000000000
     42679      6121  TIP3      H2            -24.9612772951      -23.8697855714      -49.9296773548  TIP3      5921            0.0000000000
     42680      6122  TIP3      OH2           -38.5879321170      -28.6706855367      -31.8238245367  TIP3      5922            0.0000000000
     42681      6122  TIP3      H1            -38.4501356679      -29.5671985411      -32.1921188608  TIP3      5922            0.0000000000
     42682      6122  TIP3      H2            -39.0713550284      -28.2488929448      -32.5420657877  TIP3      5922            0.0000000000
     42683      6123  TIP3      OH2           -34.2300106871      -28.3161047324      -49.8005531247  TIP3      5923            0.0000000000
     42684      6123  TIP3      H1            -34.1524361283      -29.0869628818      -49.2253890018  TIP3      5923            0.0000000000
     42685      6123  TIP3      H2            -33.5546650151      -28.4187998114      -50.4804359280  TIP3      5923            0.0000000000
     42686      6124  TIP3      OH2           -31.9535405159      -28.6220358423      -32.5349374523  TIP3      5924            0.0000000000
     42687      6124  TIP3      H1            -32.2944004248      -28.3088399020      -33.3974113253  TIP3      5924            0.0000000000
     42688      6124  TIP3      H2            -31.8787611467      -29.5986385363      -32.6433058763  TIP3      5924            0.0000000000
     42689      6125  TIP3      OH2           -26.2552480646      -28.7631565073      -35.1409686057  TIP3      5925            0.0000000000
     42690      6125  TIP3      H1            -25.4666356423      -28.1811797082      -35.2022986505  TIP3      5925            0.0000000000
     42691      6125  TIP3      H2            -26.9550359298      -28.0944143930      -35.1068156952  TIP3      5925            0.0000000000
     42692      6126  TIP3      OH2           -37.8018013538      -31.3702050583      -32.5561274510  TIP3      5926            0.0000000000
     42693      6126  TIP3      H1            -37.3356536688      -32.2174632380      -32.6540051271  TIP3      5926            0.0000000000
     42694      6126  TIP3      H2            -37.9906634323      -31.3991694838      -31.6052345211  TIP3      5926            0.0000000000
     42695      6127  TIP3      OH2           -33.1407062428      -30.2702479447      -47.4961472502  TIP3      5927            0.0000000000
     42696      6127  TIP3      H1            -33.6084925162      -30.7649536664      -46.8051616554  TIP3      5927            0.0000000000
     42697      6127  TIP3      H2            -32.7900560321      -30.9855235891      -48.0682383413  TIP3      5927            0.0000000000
     42698      6128  TIP3      OH2           -33.8542164695      -32.4438821454      -35.1831161087  TIP3      5928            0.0000000000
     42699      6128  TIP3      H1            -34.4699752482      -31.7319862323      -34.9331596159  TIP3      5928            0.0000000000
     42700      6128  TIP3      H2            -33.4513712817      -32.0710405990      -35.9886141166  TIP3      5928            0.0000000000
     42701      6129  TIP3      OH2           -31.9400275680      -32.0318999379      -49.1648491840  TIP3      5929            0.0000000000
     42702      6129  TIP3      H1            -32.1725071998      -32.1646397956      -50.0991082557  TIP3      5929            0.0000000000
     42703      6129  TIP3      H2            -30.9649919247      -31.9572369057      -49.1416178361  TIP3      5929            0.0000000000
     42704      6130  TIP3      OH2           -28.7722760800      -29.8705877868      -31.8464092151  TIP3      5930            0.0000000000
     42705      6130  TIP3      H1            -27.8149932390      -29.8815325526      -31.9690805963  TIP3      5930            0.0000000000
     42706      6130  TIP3      H2            -28.9430493278      -30.6413178873      -31.2815902127  TIP3      5930            0.0000000000
     42707      6131  TIP3      OH2           -22.9245756994      -29.9771638116       50.2288602785  TIP3      5931            0.0000000000
     42708      6131  TIP3      H1            -22.8698956209      -30.2079090736       49.3028269754  TIP3      5931            0.0000000000
     42709      6131  TIP3      H2            -22.7269440123      -29.0105664637       50.1267368654  TIP3      5931            0.0000000000
     42710      6132  TIP3      OH2           -33.4358989764      -35.0618394733      -34.1213398467  TIP3      5932            0.0000000000
     42711      6132  TIP3      H1            -33.3054978839      -35.7542306535      -34.7909849865  TIP3      5932            0.0000000000
     42712      6132  TIP3      H2            -33.5110261003      -34.2532771036      -34.6684050885  TIP3      5932            0.0000000000
     42713      6133  TIP3      OH2           -33.0330727273      -36.6064649090      -36.5895497311  TIP3      5933            0.0000000000
     42714      6133  TIP3      H1            -32.5194663178      -36.2130503766      -37.3202306932  TIP3      5933            0.0000000000
     42715      6133  TIP3      H2            -33.9281041549      -36.7632893511      -36.9789660525  TIP3      5933            0.0000000000
     42716      6134  TIP3      OH2           -31.5088062993      -31.2102144462      -36.3469584511  TIP3      5934            0.0000000000
     42717      6134  TIP3      H1            -30.7312590173      -31.3441989678      -36.8922004597  TIP3      5934            0.0000000000
     42718      6134  TIP3      H2            -31.8647729356      -30.3657186257      -36.6689729713  TIP3      5934            0.0000000000
     42719      6135  TIP3      OH2           -27.1051465992      -33.4358920746      -31.3758793472  TIP3      5935            0.0000000000
     42720      6135  TIP3      H1            -26.8551197213      -34.3653714045      -31.4756888411  TIP3      5935            0.0000000000
     42721      6135  TIP3      H2            -26.2427811205      -32.9897969127      -31.3342945837  TIP3      5935            0.0000000000
     42722      6136  TIP3      OH2           -25.7689288671      -30.6465004309      -33.2054600937  TIP3      5936            0.0000000000
     42723      6136  TIP3      H1            -26.0191074229      -29.9229253661      -33.8201189765  TIP3      5936            0.0000000000
     42724      6136  TIP3      H2            -24.8085458932      -30.6640729829      -33.3892388908  TIP3      5936            0.0000000000
     42725      6137  TIP3      OH2           -34.9998257250      -33.7901910823      -32.2099430664  TIP3      5937            0.0000000000
     42726      6137  TIP3      H1            -35.7567866324      -34.3788140642      -32.3998855734  TIP3      5937            0.0000000000
     42727      6137  TIP3      H2            -34.3432736748      -34.1457439021      -32.8365804554  TIP3      5937            0.0000000000
     42728      6138  TIP3      OH2           -32.1807396785      -39.0587039322      -36.1322278713  TIP3      5938            0.0000000000
     42729      6138  TIP3      H1            -32.4190190559      -38.1126257707      -36.2419816529  TIP3      5938            0.0000000000
     42730      6138  TIP3      H2            -32.9579768463      -39.4823257839      -36.5162290081  TIP3      5938            0.0000000000
     42731      6139  TIP3      OH2           -30.9751558833      -34.9179500996      -32.5486586966  TIP3      5939            0.0000000000
     42732      6139  TIP3      H1            -31.2912794536      -35.1708733327      -31.6624541009  TIP3      5939            0.0000000000
     42733      6139  TIP3      H2            -31.7613834907      -35.1256946504      -33.0865300650  TIP3      5939            0.0000000000
     42734      6140  TIP3      OH2           -28.2589040919      -35.7795921745      -33.4469041816  TIP3      5940            0.0000000000
     42735      6140  TIP3      H1            -29.2267614818      -35.7254949887      -33.3589596939  TIP3      5940            0.0000000000
     42736      6140  TIP3      H2            -28.0100091085      -36.4259987651      -32.7616522511  TIP3      5940            0.0000000000
     42737      6141  TIP3      OH2           -26.6733766678      -36.9401145364      -31.5350871072  TIP3      5941            0.0000000000
     42738      6141  TIP3      H1            -26.6857410659      -37.9328032294      -31.5817192106  TIP3      5941            0.0000000000
     42739      6141  TIP3      H2            -26.9358431426      -36.7922769795      -30.6154909686  TIP3      5941            0.0000000000
     42740      6142  TIP3      OH2           -36.7616642185      -35.9238902824      -32.4157040181  TIP3      5942            0.0000000000
     42741      6142  TIP3      H1            -36.6623627562      -36.6734887853      -33.0383211286  TIP3      5942            0.0000000000
     42742      6142  TIP3      H2            -36.9938526246      -36.3791378216      -31.5867432245  TIP3      5942            0.0000000000
     42743      6143  TIP3      OH2           -32.0547504634       39.8589920511      -33.4615143222  TIP3      5943            0.0000000000
     42744      6143  TIP3      H1            -31.3231908052       39.2298688819      -33.4768140259  TIP3      5943            0.0000000000
     42745      6143  TIP3      H2            -32.1265374683       40.1197446974      -34.4035269185  TIP3      5943            0.0000000000
     42746      6144  TIP3      OH2           -31.6112501896      -38.1555772982      -31.4024988234  TIP3      5944            0.0000000000
     42747      6144  TIP3      H1            -31.8277630464      -38.7512096681      -32.1500170393  TIP3      5944            0.0000000000
     42748      6144  TIP3      H2            -32.2658590904      -37.4471428847      -31.4914917178  TIP3      5944            0.0000000000
     42749      6145  TIP3      OH2           -32.1965272344      -21.3232354451      -48.2043814836  TIP3      5945            0.0000000000
     42750      6145  TIP3      H1            -31.2256373067      -21.2232754108      -48.1289702923  TIP3      5945            0.0000000000
     42751      6145  TIP3      H2            -32.4008205463      -20.7013747981      -48.9125009163  TIP3      5945            0.0000000000
     42752      6146  TIP3      OH2           -38.2375886830      -26.7013521681      -48.9303232811  TIP3      5946            0.0000000000
     42753      6146  TIP3      H1            -37.3389345645      -26.7403916362      -48.5360007217  TIP3      5946            0.0000000000
     42754      6146  TIP3      H2            -38.3596045834      -27.5310180766      -49.4079405468  TIP3      5946            0.0000000000
     42755      6147  TIP3      OH2            40.2867530707      -21.1729705914      -43.9575426982  TIP3      5947            0.0000000000
     42756      6147  TIP3      H1             39.4806764343      -21.6176690311      -44.2799381379  TIP3      5947            0.0000000000
     42757      6147  TIP3      H2             40.4040151917      -21.8006518133      -43.2112473494  TIP3      5947            0.0000000000
     42758      6148  TIP3      OH2           -38.9701184274      -23.2096521205      -41.7844933729  TIP3      5948            0.0000000000
     42759      6148  TIP3      H1            -39.2282894364      -24.1387031278      -41.6278817850  TIP3      5948            0.0000000000
     42760      6148  TIP3      H2            -38.6632432398      -22.9242622115      -40.8987369371  TIP3      5948            0.0000000000
     42761      6149  TIP3      OH2           -21.4933581989      -22.4553734888      -38.9462134623  TIP3      5949            0.0000000000
     42762      6149  TIP3      H1            -21.4753804211      -22.2730458902      -37.9912207608  TIP3      5949            0.0000000000
     42763      6149  TIP3      H2            -20.8211395750      -21.8411870331      -39.2636962408  TIP3      5949            0.0000000000
     42764      6150  TIP3      OH2           -21.9400449288      -22.8361344925      -36.0054124193  TIP3      5950            0.0000000000
     42765      6150  TIP3      H1            -22.4070006240      -23.6084944738      -36.3908730170  TIP3      5950            0.0000000000
     42766      6150  TIP3      H2            -21.4512256941      -23.2847271089      -35.2954374815  TIP3      5950            0.0000000000
     42767      6151  TIP3      OH2           -23.4931716479      -27.1169563137      -31.3336336567  TIP3      5951            0.0000000000
     42768      6151  TIP3      H1            -24.3989824873      -27.1430907205      -30.9715771059  TIP3      5951            0.0000000000
     42769      6151  TIP3      H2            -23.1206074721      -26.3116290299      -30.9257142610  TIP3      5951            0.0000000000
     42770      6152  TIP3      OH2           -22.1800769859      -28.7777484613      -45.8906480706  TIP3      5952            0.0000000000
     42771      6152  TIP3      H1            -21.3083568022      -28.3930014083      -45.7113291946  TIP3      5952            0.0000000000
     42772      6152  TIP3      H2            -22.1881749824      -29.5044963894      -45.2309876875  TIP3      5952            0.0000000000
     42773      6153  TIP3      OH2           -21.8187336338      -30.6925465413      -44.0118056861  TIP3      5953            0.0000000000
     42774      6153  TIP3      H1            -22.5633295347      -31.2138764096      -43.6372928180  TIP3      5953            0.0000000000
     42775      6153  TIP3      H2            -21.2199174116      -30.5805979718      -43.2492789063  TIP3      5953            0.0000000000
     42776      6154  TIP3      OH2           -22.0601450083      -28.0175176288      -39.0331300727  TIP3      5954            0.0000000000
     42777      6154  TIP3      H1            -21.2471769472      -28.3935300784      -39.4131153302  TIP3      5954            0.0000000000
     42778      6154  TIP3      H2            -21.9141700186      -27.0629705006      -39.2037576090  TIP3      5954            0.0000000000
     42779      6155  TIP3      OH2           -23.4999694249      -25.1166558331      -36.7563340647  TIP3      5955            0.0000000000
     42780      6155  TIP3      H1            -24.1910144143      -24.7675343833      -36.1761021067  TIP3      5955            0.0000000000
     42781      6155  TIP3      H2            -24.0460125538      -25.5088067723      -37.4725521381  TIP3      5955            0.0000000000
     42782      6156  TIP3      OH2           -21.4887627635      -30.8487788779      -47.6302187497  TIP3      5956            0.0000000000
     42783      6156  TIP3      H1            -22.0851696726      -30.5429660495      -48.3510091361  TIP3      5956            0.0000000000
     42784      6156  TIP3      H2            -21.6202567468      -30.1507809116      -46.9587902291  TIP3      5956            0.0000000000
     42785      6157  TIP3      OH2           -23.1863005866      -33.5790396589      -48.7718692791  TIP3      5957            0.0000000000
     42786      6157  TIP3      H1            -23.0257588927      -32.9645301873      -49.5134518678  TIP3      5957            0.0000000000
     42787      6157  TIP3      H2            -23.1456223522      -34.4302236061      -49.2481313701  TIP3      5957            0.0000000000
     42788      6158  TIP3      OH2           -23.9925186753      -32.2410678591      -43.4284105041  TIP3      5958            0.0000000000
     42789      6158  TIP3      H1            -24.1412929481      -33.1949873091      -43.4852970966  TIP3      5958            0.0000000000
     42790      6158  TIP3      H2            -24.3217738444      -32.0295295921      -42.5378155419  TIP3      5958            0.0000000000
     42791      6159  TIP3      OH2           -38.9034734385      -30.2959566049      -39.2703127233  TIP3      5959            0.0000000000
     42792      6159  TIP3      H1            -38.7431298102      -30.2964870521      -40.2439304898  TIP3      5959            0.0000000000
     42793      6159  TIP3      H2            -37.9794005974      -30.3331943213      -38.9443050070  TIP3      5959            0.0000000000
     42794      6160  TIP3      OH2           -23.1378641789      -30.2742188254      -33.7464305501  TIP3      5960            0.0000000000
     42795      6160  TIP3      H1            -22.5250065704      -31.0317449291      -33.6292702774  TIP3      5960            0.0000000000
     42796      6160  TIP3      H2            -22.5343424776      -29.5017976773      -33.7576813921  TIP3      5960            0.0000000000
     42797      6161  TIP3      OH2           -21.6318609671      -32.3953248384      -33.1105717997  TIP3      5961            0.0000000000
     42798      6161  TIP3      H1            -22.5266556148      -32.7722304303      -33.2614538270  TIP3      5961            0.0000000000
     42799      6161  TIP3      H2            -21.0643345782      -33.1722945732      -33.1938406926  TIP3      5961            0.0000000000
     42800      6162  TIP3      OH2           -23.9059863693      -36.2546063539      -49.8858843288  TIP3      5962            0.0000000000
     42801      6162  TIP3      H1            -23.3082611578      -36.7356121948      -49.2863092709  TIP3      5962            0.0000000000
     42802      6162  TIP3      H2            -24.7724342241      -36.6748443998      -49.7771323314  TIP3      5962            0.0000000000
     42803      6163  TIP3      OH2           -24.3451746489      -34.6614208398      -45.0023355129  TIP3      5963            0.0000000000
     42804      6163  TIP3      H1            -24.0306969499      -35.5805328091      -44.8552070141  TIP3      5963            0.0000000000
     42805      6163  TIP3      H2            -23.5470049469      -34.2543807432      -45.3729661455  TIP3      5963            0.0000000000
     42806      6164  TIP3      OH2           -23.6922910630      -34.0895463348      -39.5574558408  TIP3      5964            0.0000000000
     42807      6164  TIP3      H1            -22.7259957069      -33.8913358822      -39.5622566462  TIP3      5964            0.0000000000
     42808      6164  TIP3      H2            -23.8779111007      -33.9976619140      -38.6107285730  TIP3      5964            0.0000000000
     42809      6165  TIP3      OH2           -23.6319109059      -33.3726180450      -36.7817449916  TIP3      5965            0.0000000000
     42810      6165  TIP3      H1            -24.5091112029      -33.0937470843      -36.4497518166  TIP3      5965            0.0000000000
     42811      6165  TIP3      H2            -23.1897034862      -32.5154725199      -36.9890763429  TIP3      5965            0.0000000000
     42812      6166  TIP3      OH2           -39.2256594658      -34.7956617053      -33.4127436958  TIP3      5966            0.0000000000
     42813      6166  TIP3      H1            -38.3472246603      -35.0407304577      -33.0736564371  TIP3      5966            0.0000000000
     42814      6166  TIP3      H2            -39.8142283901      -35.4378747134      -32.9739314701  TIP3      5966            0.0000000000
     42815      6167  TIP3      OH2           -21.1095126847      -39.2447283056      -31.3639950288  TIP3      5967            0.0000000000
     42816      6167  TIP3      H1            -21.1124754047      -40.0204124851      -31.9705053926  TIP3      5967            0.0000000000
     42817      6167  TIP3      H2            -21.2917793985      -38.5036684596      -31.9585787465  TIP3      5967            0.0000000000
     42818      6168  TIP3      OH2           -23.6782438816      -37.3495865249      -44.9389595356  TIP3      5968            0.0000000000
     42819      6168  TIP3      H1            -23.4617007998      -37.8069256112      -44.0982850700  TIP3      5968            0.0000000000
     42820      6168  TIP3      H2            -24.2559012822      -38.0072505333      -45.3928221781  TIP3      5968            0.0000000000
     42821      6169  TIP3      OH2           -38.1553167916      -36.5768413744      -40.4811852474  TIP3      5969            0.0000000000
     42822      6169  TIP3      H1            -37.7274150072      -37.3762032240      -40.1233465934  TIP3      5969            0.0000000000
     42823      6169  TIP3      H2            -37.6828568212      -35.8791854750      -40.0103699038  TIP3      5969            0.0000000000
     42824      6170  TIP3      OH2           -39.8611322185      -33.0438797777      -39.4279346680  TIP3      5970            0.0000000000
     42825      6170  TIP3      H1            -39.2902654138      -33.5135664973      -40.0597709026  TIP3      5970            0.0000000000
     42826      6170  TIP3      H2            -39.2200631232      -32.4743186783      -38.9814945862  TIP3      5970            0.0000000000
     42827      6171  TIP3      OH2           -21.7374905522      -37.2362364383      -33.1797702760  TIP3      5971            0.0000000000
     42828      6171  TIP3      H1            -22.6876024909      -36.9756300924      -33.0672876808  TIP3      5971            0.0000000000
     42829      6171  TIP3      H2            -21.9047881572      -37.8527788117      -33.9082038582  TIP3      5971            0.0000000000
     42830      6172  TIP3      OH2           -21.8131541804      -37.3352545503      -48.3953859654  TIP3      5972            0.0000000000
     42831      6172  TIP3      H1            -21.4171056493      -38.0315707070      -48.9351361288  TIP3      5972            0.0000000000
     42832      6172  TIP3      H2            -21.1229680184      -36.6582540181      -48.4002731048  TIP3      5972            0.0000000000
     42833      6173  TIP3      OH2           -39.5330845845      -37.3309837672      -45.3012146907  TIP3      5973            0.0000000000
     42834      6173  TIP3      H1            -40.4645972118      -37.1355364408      -45.4556815216  TIP3      5973            0.0000000000
     42835      6173  TIP3      H2            -39.0752887190      -36.8349387695      -46.0113935341  TIP3      5973            0.0000000000
     42836      6174  TIP3      OH2           -24.7797074276      -22.3558945348      -43.3464071309  TIP3      5974            0.0000000000
     42837      6174  TIP3      H1            -24.0997011955      -22.6567345308      -43.9658350434  TIP3      5974            0.0000000000
     42838      6174  TIP3      H2            -24.2768526210      -21.8528328013      -42.6818665746  TIP3      5974            0.0000000000
     42839      6175  TIP3      OH2            40.2139060612      -38.6065242716      -36.9786390968  TIP3      5975            0.0000000000
     42840      6175  TIP3      H1             39.5253135577      -38.8830082228      -36.3554357916  TIP3      5975            0.0000000000
     42841      6175  TIP3      H2             39.7621088304      -37.9530546434      -37.5161634942  TIP3      5975            0.0000000000
     42842      6176  TIP3      OH2           -37.3812611898      -25.4309485254      -32.7946221281  TIP3      5976            0.0000000000
     42843      6176  TIP3      H1            -38.2013728100      -25.2457005142      -33.2530041816  TIP3      5976            0.0000000000
     42844      6176  TIP3      H2            -37.6254703208      -25.5398686784      -31.8680521732  TIP3      5976            0.0000000000
     42845      6177  TIP3      OH2           -34.4454335682      -24.4372571476      -36.5358805598  TIP3      5977            0.0000000000
     42846      6177  TIP3      H1            -34.7936196051      -23.5760470297      -36.8122796154  TIP3      5977            0.0000000000
     42847      6177  TIP3      H2            -33.5181085542      -24.3492576394      -36.8442748768  TIP3      5977            0.0000000000
     42848      6178  TIP3      OH2           -30.1165126010      -23.0157286110      -33.6389821110  TIP3      5978            0.0000000000
     42849      6178  TIP3      H1            -29.9799851109      -23.3709865071      -32.7295585590  TIP3      5978            0.0000000000
     42850      6178  TIP3      H2            -29.2135777541      -22.7119221369      -33.8798591671  TIP3      5978            0.0000000000
     42851      6179  TIP3      OH2           -27.8301141064      -21.7511859948      -34.3261689372  TIP3      5979            0.0000000000
     42852      6179  TIP3      H1            -27.0980488148      -22.3314205018      -34.5665389154  TIP3      5979            0.0000000000
     42853      6179  TIP3      H2            -27.4544205059      -21.3106217077      -33.5322836109  TIP3      5979            0.0000000000
     42854      6180  TIP3      OH2           -22.6067815007      -38.9390875058      -35.3992059689  TIP3      5980            0.0000000000
     42855      6180  TIP3      H1            -23.5497438842      -38.7163596625      -35.5770818591  TIP3      5980            0.0000000000
     42856      6180  TIP3      H2            -22.5363648096      -39.8658185163      -35.6346000105  TIP3      5980            0.0000000000
     42857      6181  TIP3      OH2           -37.0527482752      -21.2303892195      -36.5266388167  TIP3      5981            0.0000000000
     42858      6181  TIP3      H1            -37.7585112980      -20.6869823873      -36.9248560839  TIP3      5981            0.0000000000
     42859      6181  TIP3      H2            -37.3400120117      -21.4043048893      -35.6235509672  TIP3      5981            0.0000000000
     42860      6182  TIP3      OH2           -34.5386874768      -21.6208345551      -37.4633108352  TIP3      5982            0.0000000000
     42861      6182  TIP3      H1            -35.4416277565      -21.4916017519      -37.0910103077  TIP3      5982            0.0000000000
     42862      6182  TIP3      H2            -34.5897752064      -21.0396755220      -38.2458070400  TIP3      5982            0.0000000000
     42863      6183  TIP3      OH2           -29.8360405733      -21.7160855225      -38.3079706951  TIP3      5983            0.0000000000
     42864      6183  TIP3      H1            -30.2942696268      -21.1515753841      -38.9500858894  TIP3      5983            0.0000000000
     42865      6183  TIP3      H2            -29.7050156530      -21.0859260414      -37.5666263081  TIP3      5983            0.0000000000
     42866      6184  TIP3      OH2           -27.5517593045      -22.9086842602      -37.2703581464  TIP3      5984            0.0000000000
     42867      6184  TIP3      H1            -28.4033347992      -22.6288940150      -37.6445441140  TIP3      5984            0.0000000000
     42868      6184  TIP3      H2            -27.0643135302      -22.0741288731      -37.3640984702  TIP3      5984            0.0000000000
     42869      6185  TIP3      OH2           -24.9675351926      -21.3254569351      -37.0591656185  TIP3      5985            0.0000000000
     42870      6185  TIP3      H1            -25.0143205406      -20.3647975058      -37.2952137812  TIP3      5985            0.0000000000
     42871      6185  TIP3      H2            -24.7495302637      -21.7099683074      -37.9308980982  TIP3      5985            0.0000000000
     42872      6186  TIP3      OH2           -37.5460765118      -22.5221915164      -39.5912908040  TIP3      5986            0.0000000000
     42873      6186  TIP3      H1            -37.5841339738      -23.0128331698      -38.7527226087  TIP3      5986            0.0000000000
     42874      6186  TIP3      H2            -36.7667726661      -22.9304533322      -40.0173535150  TIP3      5986            0.0000000000
     42875      6187  TIP3      OH2           -35.4918040882      -23.8526404012      -40.9411714149  TIP3      5987            0.0000000000
     42876      6187  TIP3      H1            -35.6546551008      -24.7858213157      -40.7072425359  TIP3      5987            0.0000000000
     42877      6187  TIP3      H2            -34.6340962493      -23.6862803448      -40.4934429766  TIP3      5987            0.0000000000
     42878      6188  TIP3      OH2           -32.8889726581      -23.3622624443      -40.0674612356  TIP3      5988            0.0000000000
     42879      6188  TIP3      H1            -32.7199890453      -24.2841025454      -40.3342161623  TIP3      5988            0.0000000000
     42880      6188  TIP3      H2            -32.8254552616      -23.4152394470      -39.1031968411  TIP3      5988            0.0000000000
     42881      6189  TIP3      OH2           -29.5202566435      -37.6213719055      -40.9926220125  TIP3      5989            0.0000000000
     42882      6189  TIP3      H1            -30.0460664522      -38.3482547019      -40.6006822451  TIP3      5989            0.0000000000
     42883      6189  TIP3      H2            -28.8427149536      -38.1804619970      -41.4369205852  TIP3      5989            0.0000000000
     42884      6190  TIP3      OH2           -24.2421079111      -38.8651473771      -40.5867013536  TIP3      5990            0.0000000000
     42885      6190  TIP3      H1            -23.6160937403      -38.9118848243      -41.3606792835  TIP3      5990            0.0000000000
     42886      6190  TIP3      H2            -25.0823656076      -39.1875216494      -40.9719405722  TIP3      5990            0.0000000000
     42887      6191  TIP3      OH2           -22.6288664172      -38.4182532636      -42.6295433803  TIP3      5991            0.0000000000
     42888      6191  TIP3      H1            -21.9433133588      -39.0293525920      -42.9719541027  TIP3      5991            0.0000000000
     42889      6191  TIP3      H2            -22.1181040312      -37.5812651878      -42.5068796499  TIP3      5991            0.0000000000
     42890      6192  TIP3      OH2           -37.0639021426      -39.0995576888      -43.0836029411  TIP3      5992            0.0000000000
     42891      6192  TIP3      H1            -37.8267997413      -39.3024758862      -43.6450980895  TIP3      5992            0.0000000000
     42892      6192  TIP3      H2            -36.5972861659      -39.9495035660      -43.1333519476  TIP3      5992            0.0000000000
     42893      6193  TIP3      OH2           -38.3375077472      -39.3434761168      -47.3653986858  TIP3      5993            0.0000000000
     42894      6193  TIP3      H1            -37.7925214325      -38.7195684832      -47.8787430099  TIP3      5993            0.0000000000
     42895      6193  TIP3      H2            -38.8749964133      -38.7361891659      -46.8377635683  TIP3      5993            0.0000000000
     42896      6194  TIP3      OH2           -32.6734996731      -38.7354177070      -43.4055200589  TIP3      5994            0.0000000000
     42897      6194  TIP3      H1            -31.7106362829      -38.7288684563      -43.4942211916  TIP3      5994            0.0000000000
     42898      6194  TIP3      H2            -32.7022841579      -39.2709047233      -42.6099153150  TIP3      5994            0.0000000000
     42899      6195  TIP3      OH2           -27.0784260805      -39.0073235228      -41.4880510884  TIP3      5995            0.0000000000
     42900      6195  TIP3      H1            -26.9501780713      -38.9509790541      -42.4529542456  TIP3      5995            0.0000000000
     42901      6195  TIP3      H2            -27.2105313641      -39.9706283426      -41.4304848716  TIP3      5995            0.0000000000
     42902      6196  TIP3      OH2           -25.6080030704      -39.0210759094      -45.9371300693  TIP3      5996            0.0000000000
     42903      6196  TIP3      H1            -26.3823083350      -38.4785461794      -46.1476473031  TIP3      5996            0.0000000000
     42904      6196  TIP3      H2            -25.9398231079      -39.9305419431      -45.8574973758  TIP3      5996            0.0000000000
     42905      6197  TIP3      OH2           -38.3369004027      -23.3689973752      -46.4410295598  TIP3      5997            0.0000000000
     42906      6197  TIP3      H1            -39.0464631632      -23.3411379525      -47.0839542785  TIP3      5997            0.0000000000
     42907      6197  TIP3      H2            -38.3331754147      -22.4397381611      -46.1525437023  TIP3      5997            0.0000000000
     42908      6198  TIP3      OH2           -36.4696617942      -37.4596222578      -48.8109394825  TIP3      5998            0.0000000000
     42909      6198  TIP3      H1            -35.9431548320      -38.0281897114      -49.3713933095  TIP3      5998            0.0000000000
     42910      6198  TIP3      H2            -35.7830651374      -37.0895810390      -48.2211286165  TIP3      5998            0.0000000000
     42911      6199  TIP3      OH2           -31.4872097849      -37.1379846926      -46.4178031833  TIP3      5999            0.0000000000
     42912      6199  TIP3      H1            -31.1653201428      -37.7303253409      -45.7263215032  TIP3      5999            0.0000000000
     42913      6199  TIP3      H2            -31.3859892722      -36.2828653232      -45.9516924285  TIP3      5999            0.0000000000
     42914      6200  TIP3      OH2           -29.4994842264      -22.0770877399      -48.0158993662  TIP3      6000            0.0000000000
     42915      6200  TIP3      H1            -28.5631972050      -21.8240404639      -48.1890512121  TIP3      6000            0.0000000000
     42916      6200  TIP3      H2            -29.6832085406      -22.5750766713      -48.8359897798  TIP3      6000            0.0000000000
     42917      6201  TIP3      OH2           -22.7716026112      -22.5626855710      -45.3099245624  TIP3      6001            0.0000000000
     42918      6201  TIP3      H1            -23.0103675300      -23.3488705504      -45.8566616235  TIP3      6001            0.0000000000
     42919      6201  TIP3      H2            -22.8933761359      -21.8197713926      -45.9299801343  TIP3      6001            0.0000000000
     42920      6202  TIP3      OH2           -37.1902919351      -38.3166009757      -33.6250541121  TIP3      6002            0.0000000000
     42921      6202  TIP3      H1            -37.5663959859      -39.1669344968      -33.2916268431  TIP3      6002            0.0000000000
     42922      6202  TIP3      H2            -36.2817213917      -38.5089809597      -33.3337965121  TIP3      6002            0.0000000000
     42923      6203  TIP3      OH2           -34.9880757158      -39.0505052485      -31.9203785724  TIP3      6003            0.0000000000
     42924      6203  TIP3      H1            -34.2203176657      -39.4192969506      -32.3917734212  TIP3      6003            0.0000000000
     42925      6203  TIP3      H2            -35.5264342779      -39.8529935223      -31.7398504807  TIP3      6003            0.0000000000
     42926      6204  TIP3      OH2           -36.1917187578      -22.1931005223      -49.0586898649  TIP3      6004            0.0000000000
     42927      6204  TIP3      H1            -36.7807143202      -22.1591513673      -48.3061294976  TIP3      6004            0.0000000000
     42928      6204  TIP3      H2            -35.7090529492      -23.0219485180      -49.0383096575  TIP3      6004            0.0000000000
     42929      6205  TIP3      OH2           -26.5903870012       40.3646027053      -31.8388536731  TIP3      6005            0.0000000000
     42930      6205  TIP3      H1            -26.7230862511       39.6465648109      -31.1908055241  TIP3      6005            0.0000000000
     42931      6205  TIP3      H2            -25.8299748506       39.9845697964      -32.3105091594  TIP3      6005            0.0000000000
     42932      6206  TIP3      OH2           -23.5511862053      -23.8219152029      -33.2113735489  TIP3      6006            0.0000000000
     42933      6206  TIP3      H1            -24.3551899741      -23.9578130978      -33.7585425489  TIP3      6006            0.0000000000
     42934      6206  TIP3      H2            -23.6676932595      -22.8750172378      -32.9950537615  TIP3      6006            0.0000000000
     42935      6207  TIP3      OH2            -9.1056136759      -29.9441060907      -43.2446523103  TIP3      6007            0.0000000000
     42936      6207  TIP3      H1             -9.1222758503      -28.9629912020      -43.2680739362  TIP3      6007            0.0000000000
     42937      6207  TIP3      H2             -9.8390425022      -30.1777812142      -43.8339169104  TIP3      6007            0.0000000000
     42938      6208  TIP3      OH2           -10.2496506247      -30.6884246787      -39.7248252663  TIP3      6008            0.0000000000
     42939      6208  TIP3      H1            -10.2677724501      -31.3400009176      -39.0098825793  TIP3      6008            0.0000000000
     42940      6208  TIP3      H2            -10.6069793667      -31.1916979022      -40.4749856117  TIP3      6008            0.0000000000
     42941      6209  TIP3      OH2           -17.8988303173      -31.0120639189      -38.1777630976  TIP3      6009            0.0000000000
     42942      6209  TIP3      H1            -17.8122248733      -31.6983332762      -37.4838162349  TIP3      6009            0.0000000000
     42943      6209  TIP3      H2            -17.1492922840      -30.4420340091      -37.9540704946  TIP3      6009            0.0000000000
     42944      6210  TIP3      OH2            -6.5672802126      -27.7414241842      -41.4440941445  TIP3      6010            0.0000000000
     42945      6210  TIP3      H1             -6.9803730686      -28.4583551080      -40.9529698328  TIP3      6010            0.0000000000
     42946      6210  TIP3      H2             -6.5407252973      -27.0335615207      -40.7734096146  TIP3      6010            0.0000000000
     42947      6211  TIP3      OH2           -16.9734533284      -26.5640792229      -39.6785935343  TIP3      6011            0.0000000000
     42948      6211  TIP3      H1            -17.2822247706      -27.4348636216      -39.9936738500  TIP3      6011            0.0000000000
     42949      6211  TIP3      H2            -16.0179821531      -26.7470695691      -39.6322666509  TIP3      6011            0.0000000000
     42950      6212  TIP3      OH2           -20.3419145239      -33.0114959774      -44.1877760590  TIP3      6012            0.0000000000
     42951      6212  TIP3      H1            -20.7703929695      -32.1374717847      -44.2474967131  TIP3      6012            0.0000000000
     42952      6212  TIP3      H2            -20.8941727909      -33.5484141173      -44.7696198571  TIP3      6012            0.0000000000
     42953      6213  TIP3      OH2           -19.6215931161      -30.7827938544      -42.0359574705  TIP3      6013            0.0000000000
     42954      6213  TIP3      H1            -19.3456848923      -31.6037820111      -41.5880318652  TIP3      6013            0.0000000000
     42955      6213  TIP3      H2            -18.9295672918      -30.6757830432      -42.7058633970  TIP3      6013            0.0000000000
     42956      6214  TIP3      OH2            -9.4404374799      -22.5792834944      -41.2025694207  TIP3      6014            0.0000000000
     42957      6214  TIP3      H1             -8.7964485501      -23.2708659906      -41.4939501797  TIP3      6014            0.0000000000
     42958      6214  TIP3      H2             -9.6631138922      -22.9214900323      -40.3372669157  TIP3      6014            0.0000000000
     42959      6215  TIP3      OH2           -11.8761190199      -28.2942124357      -39.2545642897  TIP3      6015            0.0000000000
     42960      6215  TIP3      H1            -11.5388043021      -28.9176571861      -39.9154346419  TIP3      6015            0.0000000000
     42961      6215  TIP3      H2            -11.0645628366      -28.1331258529      -38.7419661098  TIP3      6015            0.0000000000
     42962      6216  TIP3      OH2            -3.2562220067      -36.6510332106      -38.5247443526  TIP3      6016            0.0000000000
     42963      6216  TIP3      H1             -3.0943036359      -36.0401356009      -37.7667648067  TIP3      6016            0.0000000000
     42964      6216  TIP3      H2             -2.7302943483      -36.2139745623      -39.2119265639  TIP3      6016            0.0000000000
     42965      6217  TIP3      OH2            -8.7066323671      -33.8320470331      -38.9327601299  TIP3      6017            0.0000000000
     42966      6217  TIP3      H1             -8.5417306703      -34.7979228575      -38.9395537783  TIP3      6017            0.0000000000
     42967      6217  TIP3      H2             -8.8122620442      -33.6782373965      -39.8924151866  TIP3      6017            0.0000000000
     42968      6218  TIP3      OH2           -15.6037134841      -35.7237048400      -41.7329484747  TIP3      6018            0.0000000000
     42969      6218  TIP3      H1            -15.4862241397      -34.8841755807      -42.2251469639  TIP3      6018            0.0000000000
     42970      6218  TIP3      H2            -15.9766446650      -36.3033362504      -42.4307247325  TIP3      6018            0.0000000000
     42971      6219  TIP3      OH2            -7.8288092669      -35.6949742903      -43.4017090188  TIP3      6019            0.0000000000
     42972      6219  TIP3      H1             -7.2084044913      -35.9573718158      -42.6809541372  TIP3      6019            0.0000000000
     42973      6219  TIP3      H2             -7.2850372837      -35.0678511587      -43.9007467565  TIP3      6019            0.0000000000
     42974      6220  TIP3      OH2           -18.9795172360      -33.3176507411      -40.9978224874  TIP3      6020            0.0000000000
     42975      6220  TIP3      H1            -18.3019888535      -33.8584650260      -40.5441961367  TIP3      6020            0.0000000000
     42976      6220  TIP3      H2            -18.8655031196      -33.6359763211      -41.9065356126  TIP3      6020            0.0000000000
     42977      6221  TIP3      OH2           -13.8135245804      -31.7663228538      -41.6721190770  TIP3      6021            0.0000000000
     42978      6221  TIP3      H1            -13.1415907834      -32.3476242729      -41.2748335284  TIP3      6021            0.0000000000
     42979      6221  TIP3      H2            -14.3263060695      -32.4238693027      -42.1812305340  TIP3      6021            0.0000000000
     42980      6222  TIP3      OH2            -2.8327182603      -35.2479282180      -36.2589172244  TIP3      6022            0.0000000000
     42981      6222  TIP3      H1             -3.4478174740      -34.4903576421      -36.3749575964  TIP3      6022            0.0000000000
     42982      6222  TIP3      H2             -2.7966498328      -35.3011761030      -35.2961176181  TIP3      6022            0.0000000000
     42983      6223  TIP3      OH2           -16.6836191684      -36.8231866774      -37.6754319970  TIP3      6023            0.0000000000
     42984      6223  TIP3      H1            -16.9569944098      -36.2927461728      -38.4542347319  TIP3      6023            0.0000000000
     42985      6223  TIP3      H2            -17.3787115027      -36.5846252425      -37.0277863959  TIP3      6023            0.0000000000
     42986      6224  TIP3      OH2            -9.4084521495      -27.3566472012      -44.1435464994  TIP3      6024            0.0000000000
     42987      6224  TIP3      H1             -9.6832818870      -27.6393299417      -45.0287055542  TIP3      6024            0.0000000000
     42988      6224  TIP3      H2             -9.7072654643      -26.4177261701      -44.1032617232  TIP3      6024            0.0000000000
     42989      6225  TIP3      OH2           -14.1747172954      -29.1907454501      -37.4515490739  TIP3      6025            0.0000000000
     42990      6225  TIP3      H1            -14.8779052713      -28.5454181379      -37.2278504652  TIP3      6025            0.0000000000
     42991      6225  TIP3      H2            -13.4677335882      -28.5925388314      -37.7418209541  TIP3      6025            0.0000000000
     42992      6226  TIP3      OH2            -6.0652627529      -36.2619521858      -41.3614625047  TIP3      6026            0.0000000000
     42993      6226  TIP3      H1             -6.2292159232      -37.0723872531      -40.8452167679  TIP3      6026            0.0000000000
     42994      6226  TIP3      H2             -5.3765918185      -35.8626359893      -40.8079584352  TIP3      6026            0.0000000000
     42995      6227  TIP3      OH2           -17.1263469825      -34.9553209924      -39.6633102551  TIP3      6027            0.0000000000
     42996      6227  TIP3      H1            -16.4882040819      -34.2864492163      -39.3298951408  TIP3      6027            0.0000000000
     42997      6227  TIP3      H2            -16.6020199779      -35.3729974526      -40.3907040807  TIP3      6027            0.0000000000
     42998      6228  TIP3      OH2           -15.7239847483      -27.1833386152      -36.6297731005  TIP3      6028            0.0000000000
     42999      6228  TIP3      H1            -15.7742212354      -26.2701301179      -36.9672791314  TIP3      6028            0.0000000000
     43000      6228  TIP3      H2            -16.6064449220      -27.2650058293      -36.1870135203  TIP3      6028            0.0000000000
     43001      6229  TIP3      OH2           -19.6704550424      -27.5879733104      -45.8001786733  TIP3      6029            0.0000000000
     43002      6229  TIP3      H1            -19.8938571069      -27.2753887920      -46.6987513748  TIP3      6029            0.0000000000
     43003      6229  TIP3      H2            -19.5843114555      -26.7457857017      -45.3115433578  TIP3      6029            0.0000000000
     43004      6230  TIP3      OH2            -6.0375621979      -25.9026678654      -39.0769548596  TIP3      6030            0.0000000000
     43005      6230  TIP3      H1             -7.0059097709      -25.7908899735      -38.9581842571  TIP3      6030            0.0000000000
     43006      6230  TIP3      H2             -5.7682332858      -24.9875318424      -39.2815831249  TIP3      6030            0.0000000000
     43007      6231  TIP3      OH2            -5.6672362067      -37.6161335924      -37.5948395586  TIP3      6031            0.0000000000
     43008      6231  TIP3      H1             -6.4327619358      -37.0574037630      -37.7918360094  TIP3      6031            0.0000000000
     43009      6231  TIP3      H2             -5.0097647017      -37.2348403217      -38.2129581518  TIP3      6031            0.0000000000
     43010      6232  TIP3      OH2           -12.7157807327      -39.4793771913      -40.1221924516  TIP3      6032            0.0000000000
     43011      6232  TIP3      H1            -12.8438121256      -40.4368548891      -40.1202936495  TIP3      6032            0.0000000000
     43012      6232  TIP3      H2            -13.6086093556      -39.1581819153      -39.9062359046  TIP3      6032            0.0000000000
     43013      6233  TIP3      OH2            -7.7678146395      -24.1222458114      -42.4728638407  TIP3      6033            0.0000000000
     43014      6233  TIP3      H1             -7.3514823265      -24.8403420706      -42.9945716619  TIP3      6033            0.0000000000
     43015      6233  TIP3      H2             -7.3440842060      -23.3337816971      -42.8772843711  TIP3      6033            0.0000000000
     43016      6234  TIP3      OH2            -6.5671784040      -26.1999163406      -43.9520867439  TIP3      6034            0.0000000000
     43017      6234  TIP3      H1             -6.8564621756      -26.8850844443      -44.5805304747  TIP3      6034            0.0000000000
     43018      6234  TIP3      H2             -6.5332554898      -26.7014410575      -43.1196093902  TIP3      6034            0.0000000000
     43019      6235  TIP3      OH2            -4.9513370666      -27.5943554007      -35.4780551745  TIP3      6035            0.0000000000
     43020      6235  TIP3      H1             -4.8024950376      -28.2502546813      -36.1948742130  TIP3      6035            0.0000000000
     43021      6235  TIP3      H2             -4.7416632111      -26.7541392039      -35.9248046722  TIP3      6035            0.0000000000
     43022      6236  TIP3      OH2           -10.4651102486      -30.6735793286      -45.7170110876  TIP3      6036            0.0000000000
     43023      6236  TIP3      H1            -11.1581030481      -30.0937909568      -46.0918461251  TIP3      6036            0.0000000000
     43024      6236  TIP3      H2             -9.7472244370      -30.5983773796      -46.3748679993  TIP3      6036            0.0000000000
     43025      6237  TIP3      OH2           -10.3608203325      -32.2115041389      -48.6678900680  TIP3      6037            0.0000000000
     43026      6237  TIP3      H1             -9.6307597892      -32.1705657702      -48.0190196307  TIP3      6037            0.0000000000
     43027      6237  TIP3      H2            -10.0395520997      -32.9115384773      -49.2570428228  TIP3      6037            0.0000000000
     43028      6238  TIP3      OH2            -3.0591910508      -31.2823215706      -37.4342444146  TIP3      6038            0.0000000000
     43029      6238  TIP3      H1             -3.7184849676      -30.5599471982      -37.3973342580  TIP3      6038            0.0000000000
     43030      6238  TIP3      H2             -2.5646208997      -31.0502118025      -38.2412822127  TIP3      6038            0.0000000000
     43031      6239  TIP3      OH2            -7.0139252494      -30.4958970342      -44.7745202694  TIP3      6039            0.0000000000
     43032      6239  TIP3      H1             -7.7572879512      -30.2536766930      -44.1713895030  TIP3      6039            0.0000000000
     43033      6239  TIP3      H2             -6.5279948957      -31.1651006714      -44.2625021433  TIP3      6039            0.0000000000
     43034      6240  TIP3      OH2            -7.0741588665      -32.3340576563      -35.6658563390  TIP3      6040            0.0000000000
     43035      6240  TIP3      H1             -7.0665368950      -31.5118428314      -35.1478130755  TIP3      6040            0.0000000000
     43036      6240  TIP3      H2             -7.7018265963      -32.0425403993      -36.3596881287  TIP3      6040            0.0000000000
     43037      6241  TIP3      OH2           -15.3926635687      -29.8352145051      -42.8785131925  TIP3      6041            0.0000000000
     43038      6241  TIP3      H1            -15.7109576007      -30.2178805769      -43.7344529511  TIP3      6041            0.0000000000
     43039      6241  TIP3      H2            -14.7782812788      -30.5304581450      -42.5454105255  TIP3      6041            0.0000000000
     43040      6242  TIP3      OH2           -14.0737465661      -26.4578528736      -40.1954482319  TIP3      6042            0.0000000000
     43041      6242  TIP3      H1            -14.0769837659      -26.9785724852      -41.0073008728  TIP3      6042            0.0000000000
     43042      6242  TIP3      H2            -13.2891527628      -26.8118607878      -39.7378699808  TIP3      6042            0.0000000000
     43043      6243  TIP3      OH2           -15.0637005828      -31.0910938482      -39.2125112852  TIP3      6043            0.0000000000
     43044      6243  TIP3      H1            -14.5154627967      -30.9943891159      -40.0158681660  TIP3      6043            0.0000000000
     43045      6243  TIP3      H2            -14.6699056982      -30.4260870825      -38.6048816225  TIP3      6043            0.0000000000
     43046      6244  TIP3      OH2            -8.6411200140      -25.5174518174      -38.5037046078  TIP3      6044            0.0000000000
     43047      6244  TIP3      H1             -8.9283688339      -24.8836116019      -37.8403248017  TIP3      6044            0.0000000000
     43048      6244  TIP3      H2             -8.8987175643      -26.3716878178      -38.0845846384  TIP3      6044            0.0000000000
     43049      6245  TIP3      OH2           -14.1080650517      -26.6604452161      -34.5181083647  TIP3      6045            0.0000000000
     43050      6245  TIP3      H1            -14.5245438687      -25.9225386935      -34.0275107849  TIP3      6045            0.0000000000
     43051      6245  TIP3      H2            -14.7801544234      -26.8611599003      -35.2153967470  TIP3      6045            0.0000000000
     43052      6246  TIP3      OH2            -8.1665919728      -31.2883349156      -47.1136852195  TIP3      6046            0.0000000000
     43053      6246  TIP3      H1             -7.5884238368      -31.1161009852      -46.3322447371  TIP3      6046            0.0000000000
     43054      6246  TIP3      H2             -7.6800283025      -30.8189105585      -47.8350243231  TIP3      6046            0.0000000000
     43055      6247  TIP3      OH2           -17.1638558819      -30.5001524606      -35.3700227924  TIP3      6047            0.0000000000
     43056      6247  TIP3      H1            -17.1127631239      -29.8331490059      -34.6593379403  TIP3      6047            0.0000000000
     43057      6247  TIP3      H2            -18.1076925120      -30.4207033828      -35.5745320278  TIP3      6047            0.0000000000
     43058      6248  TIP3      OH2           -10.4017418261      -24.5646944119      -43.6731139712  TIP3      6048            0.0000000000
     43059      6248  TIP3      H1             -9.9834777245      -24.2702370701      -42.8541800859  TIP3      6048            0.0000000000
     43060      6248  TIP3      H2            -10.9784709555      -23.8238898814      -43.8872515539  TIP3      6048            0.0000000000
     43061      6249  TIP3      OH2           -15.8608668318      -24.6275473157      -33.7715801864  TIP3      6049            0.0000000000
     43062      6249  TIP3      H1            -15.9234968167      -24.7250561310      -34.7372027346  TIP3      6049            0.0000000000
     43063      6249  TIP3      H2            -16.7904031209      -24.7615556696      -33.5031466049  TIP3      6049            0.0000000000
     43064      6250  TIP3      OH2            -4.3807296335      -39.5271137905      -47.2474409136  TIP3      6050            0.0000000000
     43065      6250  TIP3      H1             -5.3025006747      -39.4590845075      -46.9450413392  TIP3      6050            0.0000000000
     43066      6250  TIP3      H2             -4.2134649130      -38.6930957830      -47.7026638783  TIP3      6050            0.0000000000
     43067      6251  TIP3      OH2           -16.4391882255      -30.8144497077      -45.2305703769  TIP3      6051            0.0000000000
     43068      6251  TIP3      H1            -16.7173498897      -30.0448348406      -45.7705147876  TIP3      6051            0.0000000000
     43069      6251  TIP3      H2            -17.0732621991      -31.4897804359      -45.4799746271  TIP3      6051            0.0000000000
     43070      6252  TIP3      OH2            -3.3227866094      -25.1830782704      -48.7520549883  TIP3      6052            0.0000000000
     43071      6252  TIP3      H1             -3.1534327077      -24.2309255855      -48.6688617835  TIP3      6052            0.0000000000
     43072      6252  TIP3      H2             -2.4321168124      -25.5607840051      -48.8571969087  TIP3      6052            0.0000000000
     43073      6253  TIP3      OH2           -20.3321968948      -28.3790040411      -36.3578278146  TIP3      6053            0.0000000000
     43074      6253  TIP3      H1            -20.7747961050      -28.4655888810      -37.2232859420  TIP3      6053            0.0000000000
     43075      6253  TIP3      H2            -20.2475069328      -29.3289146606      -36.1436615470  TIP3      6053            0.0000000000
     43076      6254  TIP3      OH2           -20.5722303534      -25.6509651833      -39.5861041472  TIP3      6054            0.0000000000
     43077      6254  TIP3      H1            -19.6139026499      -25.7663264565      -39.6057810735  TIP3      6054            0.0000000000
     43078      6254  TIP3      H2            -20.6541438000      -24.8318810609      -39.0822811710  TIP3      6054            0.0000000000
     43079      6255  TIP3      OH2            -2.3299617305      -24.9446515459      -33.8928514643  TIP3      6055            0.0000000000
     43080      6255  TIP3      H1             -2.4503493803      -25.9052712965      -33.9238411497  TIP3      6055            0.0000000000
     43081      6255  TIP3      H2             -3.2054618109      -24.6978770239      -33.5105247454  TIP3      6055            0.0000000000
     43082      6256  TIP3      OH2           -11.3755468562      -25.4074681652      -35.0345220888  TIP3      6056            0.0000000000
     43083      6256  TIP3      H1            -11.3168117738      -24.5652350790      -34.5253115052  TIP3      6056            0.0000000000
     43084      6256  TIP3      H2            -12.2478979281      -25.7669750212      -34.7827694484  TIP3      6056            0.0000000000
     43085      6257  TIP3      OH2           -10.9484759708      -21.6626813631      -45.2432572403  TIP3      6057            0.0000000000
     43086      6257  TIP3      H1            -11.0067516028      -21.7354268446      -46.2095941173  TIP3      6057            0.0000000000
     43087      6257  TIP3      H2            -10.9131520836      -20.7042307706      -45.0751987060  TIP3      6057            0.0000000000
     43088      6258  TIP3      OH2           -17.2995450683      -22.7727328002      -43.3871278089  TIP3      6058            0.0000000000
     43089      6258  TIP3      H1            -17.1450116411      -23.2058603494      -42.5169256946  TIP3      6058            0.0000000000
     43090      6258  TIP3      H2            -18.1374640249      -23.1893205816      -43.6455900143  TIP3      6058            0.0000000000
     43091      6259  TIP3      OH2            -7.9924730829      -22.3850633652      -48.2098044569  TIP3      6059            0.0000000000
     43092      6259  TIP3      H1             -7.4994940169      -23.1218671432      -48.6587857815  TIP3      6059            0.0000000000
     43093      6259  TIP3      H2             -7.8468348423      -22.6901776392      -47.2994396637  TIP3      6059            0.0000000000
     43094      6260  TIP3      OH2            -8.2006199641      -22.4971004543      -45.4266383059  TIP3      6060            0.0000000000
     43095      6260  TIP3      H1             -9.1655190248      -22.4504251485      -45.2889409334  TIP3      6060            0.0000000000
     43096      6260  TIP3      H2             -7.9578567092      -23.2704743756      -44.8992841623  TIP3      6060            0.0000000000
     43097      6261  TIP3      OH2            -5.1919959570      -33.4635826581      -33.4209247882  TIP3      6061            0.0000000000
     43098      6261  TIP3      H1             -5.6635523846      -33.0167265902      -34.1431887560  TIP3      6061            0.0000000000
     43099      6261  TIP3      H2             -5.2023064753      -34.3876887260      -33.7225324627  TIP3      6061            0.0000000000
     43100      6262  TIP3      OH2           -18.0439750908      -27.0705234182      -35.4216709421  TIP3      6062            0.0000000000
     43101      6262  TIP3      H1            -17.8235005023      -27.4345412467      -34.5394677338  TIP3      6062            0.0000000000
     43102      6262  TIP3      H2            -18.9141444121      -27.4676854914      -35.6343978815  TIP3      6062            0.0000000000
     43103      6263  TIP3      OH2           -15.3276061125      -38.6023015143      -39.3987427072  TIP3      6063            0.0000000000
     43104      6263  TIP3      H1            -16.1971651051      -38.6919888005      -39.8450122842  TIP3      6063            0.0000000000
     43105      6263  TIP3      H2            -15.4895508158      -37.7618229104      -38.9541040257  TIP3      6063            0.0000000000
     43106      6264  TIP3      OH2           -10.7958264279      -38.6375411361      -35.8451350833  TIP3      6064            0.0000000000
     43107      6264  TIP3      H1            -10.3194909170      -39.3358588078      -35.3762895349  TIP3      6064            0.0000000000
     43108      6264  TIP3      H2            -11.6964339168      -39.0233684614      -35.9640875136  TIP3      6064            0.0000000000
     43109      6265  TIP3      OH2            -7.4409527869      -35.1100335983      -35.2176830295  TIP3      6065            0.0000000000
     43110      6265  TIP3      H1             -8.0034268939      -35.2725928185      -34.4250214181  TIP3      6065            0.0000000000
     43111      6265  TIP3      H2             -7.6051062577      -34.1794516450      -35.4512504867  TIP3      6065            0.0000000000
     43112      6266  TIP3      OH2            -6.4338346746      -30.4016483210      -48.9311121359  TIP3      6066            0.0000000000
     43113      6266  TIP3      H1             -6.5733585542      -30.4796496235      -49.8827555714  TIP3      6066            0.0000000000
     43114      6266  TIP3      H2             -5.6744082821      -29.7913429994      -49.0356543033  TIP3      6066            0.0000000000
     43115      6267  TIP3      OH2           -11.0361998622      -36.3659350224      -48.7648492694  TIP3      6067            0.0000000000
     43116      6267  TIP3      H1            -11.4018272885      -36.4036012347      -47.8611190898  TIP3      6067            0.0000000000
     43117      6267  TIP3      H2            -11.3725476971      -37.2146710354      -49.0861880459  TIP3      6067            0.0000000000
     43118      6268  TIP3      OH2           -15.2593412045      -33.6178065154      -38.2139584709  TIP3      6068            0.0000000000
     43119      6268  TIP3      H1            -15.9994033784      -33.6217297160      -37.5839029402  TIP3      6068            0.0000000000
     43120      6268  TIP3      H2            -15.3071821239      -32.7121830154      -38.5943560420  TIP3      6068            0.0000000000
     43121      6269  TIP3      OH2           -15.3029792968      -33.5270488373      -43.3504916290  TIP3      6069            0.0000000000
     43122      6269  TIP3      H1            -16.2434892983      -33.7542797092      -43.4925240975  TIP3      6069            0.0000000000
     43123      6269  TIP3      H2            -14.9257817977      -33.7894727582      -44.2125331614  TIP3      6069            0.0000000000
     43124      6270  TIP3      OH2            -9.7812372409      -32.9943159422      -44.6146376576  TIP3      6070            0.0000000000
     43125      6270  TIP3      H1            -10.1654498547      -32.1611392757      -44.9661648234  TIP3      6070            0.0000000000
     43126      6270  TIP3      H2             -9.0680868443      -33.1767303867      -45.2535544870  TIP3      6070            0.0000000000
     43127      6271  TIP3      OH2           -10.7267150518      -32.7834161499      -33.1505774550  TIP3      6071            0.0000000000
     43128      6271  TIP3      H1            -11.2486480801      -33.5676933684      -32.8474279655  TIP3      6071            0.0000000000
     43129      6271  TIP3      H2             -9.8896114168      -32.9102644701      -32.6730185868  TIP3      6071            0.0000000000
     43130      6272  TIP3      OH2            -8.7376118639      -33.5228355385      -41.7401646312  TIP3      6072            0.0000000000
     43131      6272  TIP3      H1             -9.0307781093      -32.9549076740      -42.4741874200  TIP3      6072            0.0000000000
     43132      6272  TIP3      H2             -8.6477389816      -34.3715629439      -42.2111918147  TIP3      6072            0.0000000000
     43133      6273  TIP3      OH2           -17.6419335298      -33.3681850545      -36.5387801273  TIP3      6073            0.0000000000
     43134      6273  TIP3      H1            -17.5486208849      -32.9474349903      -35.6660493741  TIP3      6073            0.0000000000
     43135      6273  TIP3      H2            -18.0870512499      -34.1979379116      -36.3383064092  TIP3      6073            0.0000000000
     43136      6274  TIP3      OH2           -14.2363640030      -35.9508836084      -49.6785815171  TIP3      6074            0.0000000000
     43137      6274  TIP3      H1            -14.6581024949      -36.3794797230      -48.9123982498  TIP3      6074            0.0000000000
     43138      6274  TIP3      H2            -14.9636762556      -35.5837991791      -50.1833225807  TIP3      6074            0.0000000000
     43139      6275  TIP3      OH2           -21.0104260376      -36.2687712311      -42.5595301267  TIP3      6075            0.0000000000
     43140      6275  TIP3      H1            -20.3233892098      -36.2463419475      -41.8668470666  TIP3      6075            0.0000000000
     43141      6275  TIP3      H2            -20.5392907109      -36.6094097560      -43.3413032163  TIP3      6075            0.0000000000
     43142      6276  TIP3      OH2           -19.6972028041      -35.5426126399      -47.1513550272  TIP3      6076            0.0000000000
     43143      6276  TIP3      H1            -19.2033327503      -34.9478501865      -47.7524196209  TIP3      6076            0.0000000000
     43144      6276  TIP3      H2            -20.3924265454      -34.9132287814      -46.8727688579  TIP3      6076            0.0000000000
     43145      6277  TIP3      OH2            -9.5589523663      -31.9247684134      -37.1886450901  TIP3      6077            0.0000000000
     43146      6277  TIP3      H1             -9.1735737317      -32.6128685154      -37.7720295994  TIP3      6077            0.0000000000
     43147      6277  TIP3      H2            -10.0201246926      -32.4552981898      -36.5141806001  TIP3      6077            0.0000000000
     43148      6278  TIP3      OH2           -12.7531448719      -35.9525774636      -42.3489612767  TIP3      6078            0.0000000000
     43149      6278  TIP3      H1            -13.6862039318      -35.9891886146      -42.0556014693  TIP3      6078            0.0000000000
     43150      6278  TIP3      H2            -12.2670080889      -36.1199287466      -41.5282914316  TIP3      6078            0.0000000000
     43151      6279  TIP3      OH2           -17.9406993337      -34.4120955971      -43.4747662970  TIP3      6079            0.0000000000
     43152      6279  TIP3      H1            -18.8185050295      -34.2477427432      -43.8715429437  TIP3      6079            0.0000000000
     43153      6279  TIP3      H2            -17.6487374647      -35.2382018012      -43.9001346472  TIP3      6079            0.0000000000
     43154      6280  TIP3      OH2           -14.2892780469      -34.3545152277      -45.8340722427  TIP3      6080            0.0000000000
     43155      6280  TIP3      H1            -13.3316097482      -34.2596180616      -45.6741626419  TIP3      6080            0.0000000000
     43156      6280  TIP3      H2            -14.5232728994      -33.6918855374      -46.5120444769  TIP3      6080            0.0000000000
     43157      6281  TIP3      OH2            -8.3345313417      -36.7606671714      -39.1070735503  TIP3      6081            0.0000000000
     43158      6281  TIP3      H1             -9.0252458647      -36.6563850792      -38.4133439493  TIP3      6081            0.0000000000
     43159      6281  TIP3      H2             -8.8397702106      -37.0169978333      -39.8937573256  TIP3      6081            0.0000000000
     43160      6282  TIP3      OH2           -15.5696118889      -33.1563108324      -48.2410840683  TIP3      6082            0.0000000000
     43161      6282  TIP3      H1            -16.1649023434      -33.5185038347      -48.9019764009  TIP3      6082            0.0000000000
     43162      6282  TIP3      H2            -14.7612585847      -32.9588672494      -48.7393950576  TIP3      6082            0.0000000000
     43163      6283  TIP3      OH2            -5.1441458158      -21.0750598849      -32.7833281595  TIP3      6083            0.0000000000
     43164      6283  TIP3      H1             -4.8774102234      -20.6920534789      -33.6379900627  TIP3      6083            0.0000000000
     43165      6283  TIP3      H2             -4.4187191264      -20.7552556369      -32.2264547852  TIP3      6083            0.0000000000
     43166      6284  TIP3      OH2           -17.4663605044      -28.6062663347      -33.2103210283  TIP3      6084            0.0000000000
     43167      6284  TIP3      H1            -16.7459012540      -28.3594051976      -32.6075037604  TIP3      6084            0.0000000000
     43168      6284  TIP3      H2            -18.2386453985      -28.5266087294      -32.6088836616  TIP3      6084            0.0000000000
     43169      6285  TIP3      OH2           -11.4598111799      -33.2000772490      -40.4615462273  TIP3      6085            0.0000000000
     43170      6285  TIP3      H1            -10.8606624306      -33.7448449543      -40.9875418978  TIP3      6085            0.0000000000
     43171      6285  TIP3      H2            -11.6144140600      -33.7429092986      -39.6775714151  TIP3      6085            0.0000000000
     43172      6286  TIP3      OH2           -16.4691714505      -37.0772087868      -43.9987446746  TIP3      6086            0.0000000000
     43173      6286  TIP3      H1            -16.7852970596      -37.9921765110      -44.0266976344  TIP3      6086            0.0000000000
     43174      6286  TIP3      H2            -15.6709624208      -37.1355557635      -44.5448118928  TIP3      6086            0.0000000000
     43175      6287  TIP3      OH2           -12.8195779579      -34.8574204147      -38.0573601709  TIP3      6087            0.0000000000
     43176      6287  TIP3      H1            -13.6562722180      -34.3558790566      -37.9467422559  TIP3      6087            0.0000000000
     43177      6287  TIP3      H2            -12.2701429234      -34.5300827267      -37.3207832572  TIP3      6087            0.0000000000
     43178      6288  TIP3      OH2           -12.2288150727      -28.6510756878      -46.3332321652  TIP3      6088            0.0000000000
     43179      6288  TIP3      H1            -13.0338089036      -29.1055286755      -46.6610192159  TIP3      6088            0.0000000000
     43180      6288  TIP3      H2            -12.4538739615      -28.5140209542      -45.3902289920  TIP3      6088            0.0000000000
     43181      6289  TIP3      OH2            -5.0497259861      -29.4408743116      -37.5412913150  TIP3      6089            0.0000000000
     43182      6289  TIP3      H1             -4.4884828094      -28.9578511697      -38.1751576044  TIP3      6089            0.0000000000
     43183      6289  TIP3      H2             -5.9106059691      -29.3982092112      -38.0044968516  TIP3      6089            0.0000000000
     43184      6290  TIP3      OH2            -8.4541938949      -35.7808765342      -48.0041705562  TIP3      6090            0.0000000000
     43185      6290  TIP3      H1             -9.3796394002      -35.6459419346      -48.2651016280  TIP3      6090            0.0000000000
     43186      6290  TIP3      H2             -8.1133536135      -34.8867338363      -47.8097419431  TIP3      6090            0.0000000000
     43187      6291  TIP3      OH2           -10.7464383371      -28.3724790782      -35.0989712558  TIP3      6091            0.0000000000
     43188      6291  TIP3      H1            -11.0969524282      -28.8038991127      -34.3128559711  TIP3      6091            0.0000000000
     43189      6291  TIP3      H2            -11.0044861428      -27.4517823038      -34.9916479523  TIP3      6091            0.0000000000
     43190      6292  TIP3      OH2            -7.6774142089      -33.8731490002      -46.4834928416  TIP3      6092            0.0000000000
     43191      6292  TIP3      H1             -6.7843430674      -34.0373406750      -46.1144618179  TIP3      6092            0.0000000000
     43192      6292  TIP3      H2             -7.5719068593      -33.0688129706      -47.0146218747  TIP3      6092            0.0000000000
     43193      6293  TIP3      OH2           -17.1260379708      -29.2454535760      -40.5414371361  TIP3      6093            0.0000000000
     43194      6293  TIP3      H1            -16.4466086131      -29.3320766101      -41.2364852191  TIP3      6093            0.0000000000
     43195      6293  TIP3      H2            -17.0698440066      -30.1055502652      -40.0877986946  TIP3      6093            0.0000000000
     43196      6294  TIP3      OH2           -10.0992037189      -27.1712328261      -47.2964370240  TIP3      6094            0.0000000000
     43197      6294  TIP3      H1            -10.4764277111      -26.3304884375      -46.9672161176  TIP3      6094            0.0000000000
     43198      6294  TIP3      H2            -10.8571079078      -27.7727222597      -47.1292114162  TIP3      6094            0.0000000000
     43199      6295  TIP3      OH2           -20.1416182492      -30.8330030316      -35.2873617418  TIP3      6095            0.0000000000
     43200      6295  TIP3      H1            -19.9699544541      -31.2785730862      -34.4345660920  TIP3      6095            0.0000000000
     43201      6295  TIP3      H2            -20.7666114547      -31.4369835304      -35.7305428383  TIP3      6095            0.0000000000
     43202      6296  TIP3      OH2           -13.1271276753      -31.2883448930      -33.1082444596  TIP3      6096            0.0000000000
     43203      6296  TIP3      H1            -13.4471321298      -31.5974524604      -33.9678834534  TIP3      6096            0.0000000000
     43204      6296  TIP3      H2            -12.2037933854      -31.6118097112      -33.1100870234  TIP3      6096            0.0000000000
     43205      6297  TIP3      OH2            -8.4390143562      -25.9508741866      -35.1501333296  TIP3      6097            0.0000000000
     43206      6297  TIP3      H1             -9.3641962753      -25.7732419501      -35.3847877557  TIP3      6097            0.0000000000
     43207      6297  TIP3      H2             -8.4732502599      -25.6570145197      -34.2197868318  TIP3      6097            0.0000000000
     43208      6298  TIP3      OH2            -2.7381716932      -33.7632527501      -46.7267579896  TIP3      6098            0.0000000000
     43209      6298  TIP3      H1             -3.3225645744      -34.0403156718      -47.4674730505  TIP3      6098            0.0000000000
     43210      6298  TIP3      H2             -2.6818079160      -32.8200692246      -46.9908145299  TIP3      6098            0.0000000000
     43211      6299  TIP3      OH2            -2.7862318388      -27.9076990262      -33.9596459677  TIP3      6099            0.0000000000
     43212      6299  TIP3      H1             -3.6794077614      -27.6882762998      -34.3240775745  TIP3      6099            0.0000000000
     43213      6299  TIP3      H2             -2.2412162705      -27.9617944289      -34.7713892136  TIP3      6099            0.0000000000
     43214      6300  TIP3      OH2            -4.4671619308      -24.9683132564      -46.3612748752  TIP3      6100            0.0000000000
     43215      6300  TIP3      H1             -4.8660969336      -25.7905266908      -46.0628025299  TIP3      6100            0.0000000000
     43216      6300  TIP3      H2             -4.1977717678      -25.1707964856      -47.2772342203  TIP3      6100            0.0000000000
     43217      6301  TIP3      OH2            -7.2745384079      -30.1264489432      -39.2616588974  TIP3      6101            0.0000000000
     43218      6301  TIP3      H1             -8.2151862782      -30.3353822103      -39.3727848797  TIP3      6101            0.0000000000
     43219      6301  TIP3      H2             -6.8428686793      -30.8857400224      -39.6973683938  TIP3      6101            0.0000000000
     43220      6302  TIP3      OH2           -14.7547858455      -25.7980980410      -43.1572246182  TIP3      6102            0.0000000000
     43221      6302  TIP3      H1            -14.2593913313      -24.9902931068      -43.3621225741  TIP3      6102            0.0000000000
     43222      6302  TIP3      H2            -15.6333730138      -25.5641816758      -43.4854074912  TIP3      6102            0.0000000000
     43223      6303  TIP3      OH2           -18.9304578392      -31.0003369802      -48.5624930046  TIP3      6103            0.0000000000
     43224      6303  TIP3      H1            -18.3916532015      -30.2950103867      -48.1649917166  TIP3      6103            0.0000000000
     43225      6303  TIP3      H2            -19.8354329919      -30.6810820710      -48.3431913760  TIP3      6103            0.0000000000
     43226      6304  TIP3      OH2           -13.3390349500      -28.1344699744      -43.6385184393  TIP3      6104            0.0000000000
     43227      6304  TIP3      H1            -13.6578926372      -27.2132049870      -43.5579797787  TIP3      6104            0.0000000000
     43228      6304  TIP3      H2            -14.0590312036      -28.6248896250      -43.1947061451  TIP3      6104            0.0000000000
     43229      6305  TIP3      OH2           -12.8903773470      -23.9448071411      -37.2274629729  TIP3      6105            0.0000000000
     43230      6305  TIP3      H1            -12.4300184308      -23.1420509379      -37.5168599479  TIP3      6105            0.0000000000
     43231      6305  TIP3      H2            -12.2743096040      -24.2887076224      -36.5569076233  TIP3      6105            0.0000000000
     43232      6306  TIP3      OH2           -14.6587027421      -23.1525633069      -44.0581725197  TIP3      6106            0.0000000000
     43233      6306  TIP3      H1            -15.6253903724      -23.0098866013      -43.9612168804  TIP3      6106            0.0000000000
     43234      6306  TIP3      H2            -14.2960603023      -22.2989798340      -43.7552180031  TIP3      6106            0.0000000000
     43235      6307  TIP3      OH2            -9.3747237670      -27.9540639221      -37.6157446445  TIP3      6107            0.0000000000
     43236      6307  TIP3      H1             -9.6914288722      -28.1422448723      -36.7075820061  TIP3      6107            0.0000000000
     43237      6307  TIP3      H2             -8.7288035504      -28.6595613034      -37.7812166728  TIP3      6107            0.0000000000
     43238      6308  TIP3      OH2            -7.1169711138      -26.9130920263      -48.4260191529  TIP3      6108            0.0000000000
     43239      6308  TIP3      H1             -6.7799191426      -27.4066398088      -47.6608406017  TIP3      6108            0.0000000000
     43240      6308  TIP3      H2             -8.0590311070      -27.1015410599      -48.3480493097  TIP3      6108            0.0000000000
     43241      6309  TIP3      OH2            -6.5465828826      -23.3672462899      -35.1271777272  TIP3      6109            0.0000000000
     43242      6309  TIP3      H1             -7.2409156764      -23.8599190649      -35.6042660101  TIP3      6109            0.0000000000
     43243      6309  TIP3      H2             -6.3662247598      -22.6662981364      -35.7884875306  TIP3      6109            0.0000000000
     43244      6310  TIP3      OH2            -2.5436011782      -22.4660573609      -48.3046513702  TIP3      6110            0.0000000000
     43245      6310  TIP3      H1             -1.8518528798      -21.8115028713      -48.4638172148  TIP3      6110            0.0000000000
     43246      6310  TIP3      H2             -3.2761690322      -21.8898468722      -47.9708644016  TIP3      6110            0.0000000000
     43247      6311  TIP3      OH2           -18.4838876378      -36.0749256557      -35.7632957517  TIP3      6111            0.0000000000
     43248      6311  TIP3      H1            -19.3876391651      -35.7255427718      -35.9295709140  TIP3      6111            0.0000000000
     43249      6311  TIP3      H2            -18.5199704963      -37.0198125942      -35.5497775496  TIP3      6111            0.0000000000
     43250      6312  TIP3      OH2            -6.2435159981      -28.2316497307      -46.2751074526  TIP3      6112            0.0000000000
     43251      6312  TIP3      H1             -6.4821874463      -29.0442586971      -45.7904275129  TIP3      6112            0.0000000000
     43252      6312  TIP3      H2             -5.2917632427      -28.1929179751      -46.1043313938  TIP3      6112            0.0000000000
     43253      6313  TIP3      OH2           -18.8787816896      -24.3311750088      -37.3080566369  TIP3      6113            0.0000000000
     43254      6313  TIP3      H1            -18.5707877300      -25.2507967474      -37.3005631075  TIP3      6113            0.0000000000
     43255      6313  TIP3      H2            -18.6142873241      -24.0379463477      -36.4282637313  TIP3      6113            0.0000000000
     43256      6314  TIP3      OH2           -14.1200214514      -26.2557321625      -47.5826555979  TIP3      6114            0.0000000000
     43257      6314  TIP3      H1            -13.8623957239      -26.7946749152      -46.8280767854  TIP3      6114            0.0000000000
     43258      6314  TIP3      H2            -14.0650563166      -25.3361270796      -47.2501771430  TIP3      6114            0.0000000000
     43259      6315  TIP3      OH2           -17.6167379456      -29.0432311891      -47.1175311563  TIP3      6115            0.0000000000
     43260      6315  TIP3      H1            -18.3030913578      -28.6312165920      -46.5588324716  TIP3      6115            0.0000000000
     43261      6315  TIP3      H2            -17.0799157291      -28.2642633992      -47.3563322286  TIP3      6115            0.0000000000
     43262      6316  TIP3      OH2            -9.7494804231      -36.3369636299      -36.7663759465  TIP3      6116            0.0000000000
     43263      6316  TIP3      H1             -9.0276448422      -36.3158158889      -36.1246465921  TIP3      6116            0.0000000000
     43264      6316  TIP3      H2            -10.1616641827      -37.2130822879      -36.5796929629  TIP3      6116            0.0000000000
     43265      6317  TIP3      OH2            -8.9271217403      -36.8439146510      -45.6481140797  TIP3      6117            0.0000000000
     43266      6317  TIP3      H1             -8.7945325737      -36.2960757286      -46.4544167080  TIP3      6117            0.0000000000
     43267      6317  TIP3      H2             -8.4360788641      -36.2964900415      -45.0169308432  TIP3      6117            0.0000000000
     43268      6318  TIP3      OH2           -11.3155187980      -24.6094898648      -46.8959060649  TIP3      6118            0.0000000000
     43269      6318  TIP3      H1            -12.1395438054      -24.1036183253      -46.7912330035  TIP3      6118            0.0000000000
     43270      6318  TIP3      H2            -10.7985524966      -24.0555823232      -47.4894847739  TIP3      6118            0.0000000000
     43271      6319  TIP3      OH2           -11.7642383192      -35.0428129121      -44.8657128507  TIP3      6119            0.0000000000
     43272      6319  TIP3      H1            -10.9988459006      -34.4386235709      -44.8354537991  TIP3      6119            0.0000000000
     43273      6319  TIP3      H2            -12.0390876659      -35.1233074834      -43.9337265113  TIP3      6119            0.0000000000
     43274      6320  TIP3      OH2           -11.2245573799      -33.9977643924      -35.6685800491  TIP3      6120            0.0000000000
     43275      6320  TIP3      H1            -11.1435986506      -33.4491138155      -34.8664960927  TIP3      6120            0.0000000000
     43276      6320  TIP3      H2            -10.5736523830      -34.7066438668      -35.5810849644  TIP3      6120            0.0000000000
     43277      6321  TIP3      OH2           -10.9641145078      -37.9731206642      -43.9305493615  TIP3      6121            0.0000000000
     43278      6321  TIP3      H1            -11.2823215939      -37.2898984397      -43.3158833080  TIP3      6121            0.0000000000
     43279      6321  TIP3      H2            -10.2765688504      -37.4621100408      -44.4204954513  TIP3      6121            0.0000000000
     43280      6322  TIP3      OH2           -13.9556007208      -23.5561015455      -46.8131807358  TIP3      6122            0.0000000000
     43281      6322  TIP3      H1            -13.7737460706      -22.7418652396      -47.3366531871  TIP3      6122            0.0000000000
     43282      6322  TIP3      H2            -14.2105650130      -23.2015445728      -45.9397966654  TIP3      6122            0.0000000000
     43283      6323  TIP3      OH2           -15.2957302143      -36.7819122358      -47.2578801045  TIP3      6123            0.0000000000
     43284      6323  TIP3      H1            -15.3095502403      -35.9018424020      -46.8394985640  TIP3      6123            0.0000000000
     43285      6323  TIP3      H2            -14.3991056323      -37.0821757318      -47.0162734743  TIP3      6123            0.0000000000
     43286      6324  TIP3      OH2            -5.0493445961      -36.1160263351      -34.8513584872  TIP3      6124            0.0000000000
     43287      6324  TIP3      H1             -5.9872691673      -35.8256119557      -34.9622425500  TIP3      6124            0.0000000000
     43288      6324  TIP3      H2             -4.7614716150      -36.1314121244      -35.7791759834  TIP3      6124            0.0000000000
     43289      6325  TIP3      OH2            -6.4354610648      -32.3373987161      -40.8171148274  TIP3      6125            0.0000000000
     43290      6325  TIP3      H1             -7.2622561157      -32.7786362038      -41.0993352939  TIP3      6125            0.0000000000
     43291      6325  TIP3      H2             -5.9558630644      -33.0345041293      -40.3110394586  TIP3      6125            0.0000000000
     43292      6326  TIP3      OH2           -16.9958250031      -26.4610715779      -48.1147599309  TIP3      6126            0.0000000000
     43293      6326  TIP3      H1            -16.3633155210      -25.7646811772      -47.9101977870  TIP3      6126            0.0000000000
     43294      6326  TIP3      H2            -16.5774803482      -26.8304750951      -48.9227789057  TIP3      6126            0.0000000000
     43295      6327  TIP3      OH2           -18.6762375960      -33.7314370648      -48.9516516685  TIP3      6127            0.0000000000
     43296      6327  TIP3      H1            -18.6856742290      -32.7593984952      -48.8651509133  TIP3      6127            0.0000000000
     43297      6327  TIP3      H2            -19.5119287347      -33.9299817340      -49.4125554670  TIP3      6127            0.0000000000
     43298      6328  TIP3      OH2            -5.3733037883      -23.0753283028      -39.1500588453  TIP3      6128            0.0000000000
     43299      6328  TIP3      H1             -5.4617863757      -22.3947019283      -39.8470771268  TIP3      6128            0.0000000000
     43300      6328  TIP3      H2             -4.4098741274      -23.0238574242      -38.9773812221  TIP3      6128            0.0000000000
     43301      6329  TIP3      OH2           -17.8666805499      -38.8166325925      -40.3673772131  TIP3      6129            0.0000000000
     43302      6329  TIP3      H1            -18.0497254834      -38.8546722600      -41.3364330530  TIP3      6129            0.0000000000
     43303      6329  TIP3      H2            -18.1211050338      -39.7146388780      -40.1753988563  TIP3      6129            0.0000000000
     43304      6330  TIP3      OH2           -18.9260716745      -25.0348529714      -44.1996638848  TIP3      6130            0.0000000000
     43305      6330  TIP3      H1            -19.7836501598      -24.5880949044      -44.2402705592  TIP3      6130            0.0000000000
     43306      6330  TIP3      H2            -18.4416015638      -24.5718983338      -44.8910121486  TIP3      6130            0.0000000000
     43307      6331  TIP3      OH2           -19.7266072118      -22.3811409283      -32.9170843399  TIP3      6131            0.0000000000
     43308      6331  TIP3      H1            -19.1187128845      -22.5823312065      -32.1767853669  TIP3      6131            0.0000000000
     43309      6331  TIP3      H2            -20.1230110349      -23.2523731809      -33.0965956779  TIP3      6131            0.0000000000
     43310      6332  TIP3      OH2           -15.0411299273      -23.4616516329      -31.3094332863  TIP3      6132            0.0000000000
     43311      6332  TIP3      H1            -14.2842021821      -23.9636949763      -30.9745804582  TIP3      6132            0.0000000000
     43312      6332  TIP3      H2            -15.0671228520      -23.7434404942      -32.2442136309  TIP3      6132            0.0000000000
     43313      6333  TIP3      OH2           -10.9809390751      -24.0093661635      -49.9792121643  TIP3      6133            0.0000000000
     43314      6333  TIP3      H1            -11.6061811587      -24.6588913683      -49.6389379884  TIP3      6133            0.0000000000
     43315      6333  TIP3      H2            -10.1898994940      -24.5441206959      -50.1157400765  TIP3      6133            0.0000000000
     43316      6334  TIP3      OH2            -8.5394474744      -25.0797660557      -32.5567177109  TIP3      6134            0.0000000000
     43317      6334  TIP3      H1             -8.8537889577      -25.9672744225      -32.2817029772  TIP3      6134            0.0000000000
     43318      6334  TIP3      H2             -7.7693059018      -24.9610323514      -31.9658724516  TIP3      6134            0.0000000000
     43319      6335  TIP3      OH2            -6.7472254302      -24.3171758737      -49.3074411513  TIP3      6135            0.0000000000
     43320      6335  TIP3      H1             -6.1888810813      -25.0412719321      -48.9776938983  TIP3      6135            0.0000000000
     43321      6335  TIP3      H2             -6.1051762608      -23.8697041485      -49.9310448382  TIP3      6135            0.0000000000
     43322      6336  TIP3      OH2           -19.8139616908      -28.6110412150      -31.9177656697  TIP3      6136            0.0000000000
     43323      6336  TIP3      H1            -19.6484316814      -29.5219525675      -32.2202341123  TIP3      6136            0.0000000000
     43324      6336  TIP3      H2            -20.5524990123      -28.3519034785      -32.4935861208  TIP3      6136            0.0000000000
     43325      6337  TIP3      OH2           -15.3831730437      -28.3227506945      -49.8075464094  TIP3      6137            0.0000000000
     43326      6337  TIP3      H1            -15.3020216975      -29.0878564472      -49.2263667912  TIP3      6137            0.0000000000
     43327      6337  TIP3      H2            -14.7027025251      -28.4236912462      -50.4812678943  TIP3      6137            0.0000000000
     43328      6338  TIP3      OH2           -13.0957266895      -28.6235258894      -32.5337866871  TIP3      6138            0.0000000000
     43329      6338  TIP3      H1            -13.4300310683      -28.3087909878      -33.3972601722  TIP3      6138            0.0000000000
     43330      6338  TIP3      H2            -13.0222307215      -29.5997606885      -32.6426991634  TIP3      6138            0.0000000000
     43331      6339  TIP3      OH2            -7.3989985865      -28.7632686409      -35.1412852192  TIP3      6139            0.0000000000
     43332      6339  TIP3      H1             -6.6105071521      -28.1812250446      -35.2021216613  TIP3      6139            0.0000000000
     43333      6339  TIP3      H2             -8.0979243288      -28.0944357076      -35.1060243410  TIP3      6139            0.0000000000
     43334      6340  TIP3      OH2           -18.9024432528      -31.4021836179      -32.5416940217  TIP3      6140            0.0000000000
     43335      6340  TIP3      H1            -18.4619301916      -32.2497766867      -32.6143360445  TIP3      6140            0.0000000000
     43336      6340  TIP3      H2            -19.1184548585      -31.3611347198      -31.5931078197  TIP3      6140            0.0000000000
     43337      6341  TIP3      OH2           -14.2822499564      -30.2680022575      -47.4950217278  TIP3      6141            0.0000000000
     43338      6341  TIP3      H1            -14.7552201131      -30.7645732750      -46.8066654120  TIP3      6141            0.0000000000
     43339      6341  TIP3      H2            -13.9346004249      -30.9858691016      -48.0684027672  TIP3      6141            0.0000000000
     43340      6342  TIP3      OH2           -14.9879076759      -32.4468112743      -35.1860026165  TIP3      6142            0.0000000000
     43341      6342  TIP3      H1            -15.5866302780      -31.7256115526      -34.9300566655  TIP3      6142            0.0000000000
     43342      6342  TIP3      H2            -14.5936399311      -32.0758081104      -35.9935299388  TIP3      6142            0.0000000000
     43343      6343  TIP3      OH2           -13.0780692532      -32.0371494511      -49.1657291357  TIP3      6143            0.0000000000
     43344      6343  TIP3      H1            -13.3172357607      -32.1621914839      -50.0985047852  TIP3      6143            0.0000000000
     43345      6343  TIP3      H2            -12.1065509494      -31.9588058645      -49.1388062896  TIP3      6143            0.0000000000
     43346      6344  TIP3      OH2            -9.9166603073      -29.8705214605      -31.8455509912  TIP3      6144            0.0000000000
     43347      6344  TIP3      H1             -8.9607856652      -29.8849478215      -31.9728808012  TIP3      6144            0.0000000000
     43348      6344  TIP3      H2            -10.0872048591      -30.6419574381      -31.2819746130  TIP3      6144            0.0000000000
     43349      6345  TIP3      OH2            -4.0644962706      -29.9827893696       50.2177067296  TIP3      6145            0.0000000000
     43350      6345  TIP3      H1             -3.9959134290      -30.1950355621       49.2910771863  TIP3      6145            0.0000000000
     43351      6345  TIP3      H2             -3.8702074102      -29.0142575269       50.1302480891  TIP3      6145            0.0000000000
     43352      6346  TIP3      OH2           -14.6312606997      -35.0742340329      -34.1456410235  TIP3      6146            0.0000000000
     43353      6346  TIP3      H1            -14.4175588987      -35.7547651105      -34.8057238365  TIP3      6146            0.0000000000
     43354      6346  TIP3      H2            -14.6005700776      -34.2523724092      -34.6760946417  TIP3      6146            0.0000000000
     43355      6347  TIP3      OH2           -14.1988411624      -36.6060334724      -36.5677047921  TIP3      6147            0.0000000000
     43356      6347  TIP3      H1            -13.6623330717      -36.2168204904      -37.2916051090  TIP3      6147            0.0000000000
     43357      6347  TIP3      H2            -15.0665633503      -36.7701754672      -37.0049989228  TIP3      6147            0.0000000000
     43358      6348  TIP3      OH2           -12.6436909800      -31.1878367978      -36.3319144036  TIP3      6148            0.0000000000
     43359      6348  TIP3      H1            -11.8895479520      -31.3561329078      -36.9026078704  TIP3      6148            0.0000000000
     43360      6348  TIP3      H2            -13.0095181538      -30.3554887633      -36.6692110986  TIP3      6148            0.0000000000
     43361      6349  TIP3      OH2            -8.2467083259      -33.4364000798      -31.3684352151  TIP3      6149            0.0000000000
     43362      6349  TIP3      H1             -8.0016007696      -34.3658847205      -31.4784401136  TIP3      6149            0.0000000000
     43363      6349  TIP3      H2             -7.3830287832      -32.9926866211      -31.3371037362  TIP3      6149            0.0000000000
     43364      6350  TIP3      OH2            -6.9101079450      -30.6429980712      -33.1991889408  TIP3      6150            0.0000000000
     43365      6350  TIP3      H1             -7.1585148286      -29.9237756692      -33.8195427906  TIP3      6150            0.0000000000
     43366      6350  TIP3      H2             -5.9508834270      -30.6732838644      -33.3896542566  TIP3      6150            0.0000000000
     43367      6351  TIP3      OH2           -16.1282225816      -33.8075151866      -32.2074131121  TIP3      6151            0.0000000000
     43368      6351  TIP3      H1            -16.8881472801      -34.3792272360      -32.3788709085  TIP3      6151            0.0000000000
     43369      6351  TIP3      H2            -15.4545685786      -34.1516737618      -32.8267540194  TIP3      6151            0.0000000000
     43370      6352  TIP3      OH2           -13.3211540589      -39.0582739753      -36.1328252338  TIP3      6152            0.0000000000
     43371      6352  TIP3      H1            -13.5540050612      -38.1098678190      -36.2310571630  TIP3      6152            0.0000000000
     43372      6352  TIP3      H2            -14.1012191237      -39.4791218633      -36.5149649997  TIP3      6152            0.0000000000
     43373      6353  TIP3      OH2           -12.1280054630      -34.9182552508      -32.5618184312  TIP3      6153            0.0000000000
     43374      6353  TIP3      H1            -12.4333728353      -35.1718380347      -31.6701168031  TIP3      6153            0.0000000000
     43375      6353  TIP3      H2            -12.9125026056      -35.1323415696      -33.0910523850  TIP3      6153            0.0000000000
     43376      6354  TIP3      OH2            -9.4028695769      -35.7794008830      -33.4463001339  TIP3      6154            0.0000000000
     43377      6354  TIP3      H1            -10.3707080259      -35.7260436852      -33.3595201774  TIP3      6154            0.0000000000
     43378      6354  TIP3      H2             -9.1537137946      -36.4254175371      -32.7599427370  TIP3      6154            0.0000000000
     43379      6355  TIP3      OH2            -7.8372059413      -36.9457990830      -31.5338467043  TIP3      6155            0.0000000000
     43380      6355  TIP3      H1             -7.8300281050      -37.9370943404      -31.5818123126  TIP3      6155            0.0000000000
     43381      6355  TIP3      H2             -8.0911844701      -36.8007401573      -30.6086248966  TIP3      6155            0.0000000000
     43382      6356  TIP3      OH2           -18.0553537941      -35.9409182345      -32.4303484792  TIP3      6156            0.0000000000
     43383      6356  TIP3      H1            -17.5842964418      -36.6309990835      -32.9309379122  TIP3      6156            0.0000000000
     43384      6356  TIP3      H2            -18.0666361414      -36.3160988660      -31.5189465567  TIP3      6156            0.0000000000
     43385      6357  TIP3      OH2           -13.1986996954       39.8586030590      -33.4656075429  TIP3      6157            0.0000000000
     43386      6357  TIP3      H1            -12.4653199194       39.2341520896      -33.4842636512  TIP3      6157            0.0000000000
     43387      6357  TIP3      H2            -13.2670480594       40.1188180853      -34.4068252275  TIP3      6157            0.0000000000
     43388      6358  TIP3      OH2           -12.7420571779      -38.1554284005      -31.4304145470  TIP3      6158            0.0000000000
     43389      6358  TIP3      H1            -12.9827251978      -38.7513977648      -32.1678035893  TIP3      6158            0.0000000000
     43390      6358  TIP3      H2            -13.4098675858      -37.4535857204      -31.4748581798  TIP3      6158            0.0000000000
     43391      6359  TIP3      OH2           -13.3405567586      -21.3229635196      -48.2042363076  TIP3      6159            0.0000000000
     43392      6359  TIP3      H1            -12.3696766749      -21.2232449692      -48.1290733296  TIP3      6159            0.0000000000
     43393      6359  TIP3      H2            -13.5447301275      -20.7015278279      -48.9126912914  TIP3      6159            0.0000000000
     43394      6360  TIP3      OH2           -19.7038070410      -26.7555806327      -48.6379366730  TIP3      6160            0.0000000000
     43395      6360  TIP3      H1            -18.7379676672      -26.6539892089      -48.4960409456  TIP3      6160            0.0000000000
     43396      6360  TIP3      H2            -19.7178007875      -27.3576593700      -49.3965686562  TIP3      6160            0.0000000000
     43397      6361  TIP3      OH2           -20.9887191735      -21.3835191074      -43.7824495844  TIP3      6161            0.0000000000
     43398      6361  TIP3      H1            -21.7463665054      -21.8407219906      -44.2136741140  TIP3      6161            0.0000000000
     43399      6361  TIP3      H2            -20.7563875331      -22.0101652610      -43.0749570171  TIP3      6161            0.0000000000
     43400      6362  TIP3      OH2           -20.1910833986      -23.2260310223      -41.8783896638  TIP3      6162            0.0000000000
     43401      6362  TIP3      H1            -20.5449080149      -24.1057700493      -41.6831696885  TIP3      6162            0.0000000000
     43402      6362  TIP3      H2            -19.9652697306      -22.8986231454      -40.9932374272  TIP3      6162            0.0000000000
     43403      6363  TIP3      OH2            -2.6536855399      -22.4328332523      -38.9547948394  TIP3      6163            0.0000000000
     43404      6363  TIP3      H1             -2.6233192377      -22.2727996382      -37.9955484200  TIP3      6163            0.0000000000
     43405      6363  TIP3      H2             -1.9501728436      -21.8495502976      -39.2574365843  TIP3      6163            0.0000000000
     43406      6364  TIP3      OH2            -3.0825397073      -22.8360687589      -36.0062081019  TIP3      6164            0.0000000000
     43407      6364  TIP3      H1             -3.5515034790      -23.6078884730      -36.3908367685  TIP3      6164            0.0000000000
     43408      6364  TIP3      H2             -2.5952473187      -23.2847929671      -35.2952917636  TIP3      6164            0.0000000000
     43409      6365  TIP3      OH2            -4.6364813363      -27.1171038599      -31.3337996643  TIP3      6165            0.0000000000
     43410      6365  TIP3      H1             -5.5423338767      -27.1433890415      -30.9717772040  TIP3      6165            0.0000000000
     43411      6365  TIP3      H2             -4.2646731767      -26.3120894805      -30.9250227606  TIP3      6165            0.0000000000
     43412      6366  TIP3      OH2            -3.3241757417      -28.7779221930      -45.8908117429  TIP3      6166            0.0000000000
     43413      6366  TIP3      H1             -2.4525435506      -28.3925953136      -45.7118334837  TIP3      6166            0.0000000000
     43414      6366  TIP3      H2             -3.3322881137      -29.5042222107      -45.2306665906  TIP3      6166            0.0000000000
     43415      6367  TIP3      OH2            -2.9667090058      -30.6948975663      -44.0122988611  TIP3      6167            0.0000000000
     43416      6367  TIP3      H1             -3.7113902163      -31.2162293883      -43.6364060288  TIP3      6167            0.0000000000
     43417      6367  TIP3      H2             -2.3654120349      -30.5808997866      -43.2501219384  TIP3      6167            0.0000000000
     43418      6368  TIP3      OH2            -3.2042558689      -28.0171575074      -39.0330698992  TIP3      6168            0.0000000000
     43419      6368  TIP3      H1             -2.3914322082      -28.3937609343      -39.4129767454  TIP3      6168            0.0000000000
     43420      6368  TIP3      H2             -3.0578512155      -27.0624532946      -39.2051027219  TIP3      6168            0.0000000000
     43421      6369  TIP3      OH2            -4.6427432096      -25.1090195319      -36.7684541699  TIP3      6169            0.0000000000
     43422      6369  TIP3      H1             -5.3346264964      -24.7682191929      -36.1777583259  TIP3      6169            0.0000000000
     43423      6369  TIP3      H2             -5.1925601989      -25.5117277145      -37.4731676427  TIP3      6169            0.0000000000
     43424      6370  TIP3      OH2            -2.6279159903      -30.8506234730      -47.6333799497  TIP3      6170            0.0000000000
     43425      6370  TIP3      H1             -3.2256995091      -30.5443959486      -48.3499107022  TIP3      6170            0.0000000000
     43426      6370  TIP3      H2             -2.7677202279      -30.1568181469      -46.9616281591  TIP3      6170            0.0000000000
     43427      6371  TIP3      OH2            -4.3401869722      -33.5785982509      -48.7501794800  TIP3      6171            0.0000000000
     43428      6371  TIP3      H1             -4.1428301818      -32.9534646938      -49.4764510332  TIP3      6171            0.0000000000
     43429      6371  TIP3      H2             -4.2637528999      -34.4336983304      -49.2145892661  TIP3      6171            0.0000000000
     43430      6372  TIP3      OH2            -5.1381791853      -32.2395845211      -43.4322172843  TIP3      6172            0.0000000000
     43431      6372  TIP3      H1             -5.2858035155      -33.1936984349      -43.4839645976  TIP3      6172            0.0000000000
     43432      6372  TIP3      H2             -5.4656316602      -32.0294594942      -42.5403220993  TIP3      6172            0.0000000000
     43433      6373  TIP3      OH2           -20.1324579139      -30.1507046829      -39.3882707713  TIP3      6173            0.0000000000
     43434      6373  TIP3      H1            -19.9567699135      -30.2335904624      -40.3517222602  TIP3      6173            0.0000000000
     43435      6373  TIP3      H2            -19.2390209970      -30.3305003570      -39.0359970275  TIP3      6173            0.0000000000
     43436      6374  TIP3      OH2            -4.2845385745      -30.2679171803      -33.7486953289  TIP3      6174            0.0000000000
     43437      6374  TIP3      H1             -3.6725981898      -31.0261778677      -33.6260017494  TIP3      6174            0.0000000000
     43438      6374  TIP3      H2             -3.6789413085      -29.4982226983      -33.7563123574  TIP3      6174            0.0000000000
     43439      6375  TIP3      OH2            -2.7719270338      -32.3995689774      -33.1100337992  TIP3      6175            0.0000000000
     43440      6375  TIP3      H1             -3.6600376115      -32.7873945689      -33.2629834555  TIP3      6175            0.0000000000
     43441      6375  TIP3      H2             -2.2038349725      -33.1867274407      -33.1861754984  TIP3      6175            0.0000000000
     43442      6376  TIP3      OH2            -5.0610908362      -36.2439720305      -49.9118802126  TIP3      6176            0.0000000000
     43443      6376  TIP3      H1             -4.4508150139      -36.7159413802      -49.3041698630  TIP3      6176            0.0000000000
     43444      6376  TIP3      H2             -5.9124937015      -36.6829921958      -49.7590670292  TIP3      6176            0.0000000000
     43445      6377  TIP3      OH2            -5.4884602170      -34.6599052848      -45.0026206197  TIP3      6177            0.0000000000
     43446      6377  TIP3      H1             -5.1764785856      -35.5800231748      -44.8542983186  TIP3      6177            0.0000000000
     43447      6377  TIP3      H2             -4.6901306089      -34.2540439289      -45.3727796094  TIP3      6177            0.0000000000
     43448      6378  TIP3      OH2            -4.8362386852      -34.0879918306      -39.5576736107  TIP3      6178            0.0000000000
     43449      6378  TIP3      H1             -3.8695382005      -33.8927169050      -39.5612516852  TIP3      6178            0.0000000000
     43450      6378  TIP3      H2             -5.0219746220      -33.9997280265      -38.6110136468  TIP3      6178            0.0000000000
     43451      6379  TIP3      OH2            -4.7731070852      -33.3782598918      -36.7752539622  TIP3      6179            0.0000000000
     43452      6379  TIP3      H1             -5.6553581849      -33.0891844369      -36.4558925498  TIP3      6179            0.0000000000
     43453      6379  TIP3      H2             -4.3333634364      -32.5203768593      -36.9906520131  TIP3      6179            0.0000000000
     43454      6380  TIP3      OH2           -20.4888765313      -34.8750740000      -33.3153851928  TIP3      6180            0.0000000000
     43455      6380  TIP3      H1            -19.5947935729      -34.9479580824      -32.9139976350  TIP3      6180            0.0000000000
     43456      6380  TIP3      H2            -21.0532519242      -35.5585656727      -32.8847703167  TIP3      6180            0.0000000000
     43457      6381  TIP3      OH2            -2.2779995818      -39.2488473999      -31.3518198140  TIP3      6181            0.0000000000
     43458      6381  TIP3      H1             -2.2318575317      -39.9989294879      -31.9866662587  TIP3      6181            0.0000000000
     43459      6381  TIP3      H2             -2.4060189737      -38.4933302872      -31.9621471442  TIP3      6181            0.0000000000
     43460      6382  TIP3      OH2            -4.8235559298      -37.3478771042      -44.9396238838  TIP3      6182            0.0000000000
     43461      6382  TIP3      H1             -4.6045652992      -37.8053367878      -44.0997068728  TIP3      6182            0.0000000000
     43462      6382  TIP3      H2             -5.4012367385      -38.0065967632      -45.3919018319  TIP3      6182            0.0000000000
     43463      6383  TIP3      OH2           -19.3281517098      -36.5544685680      -40.3965812447  TIP3      6183            0.0000000000
     43464      6383  TIP3      H1            -18.8667060003      -37.3632373614      -40.1003785743  TIP3      6183            0.0000000000
     43465      6383  TIP3      H2            -18.7652066361      -35.8614977775      -40.0245746789  TIP3      6183            0.0000000000
     43466      6384  TIP3      OH2           -21.0350758235      -33.5593548413      -39.3524059994  TIP3      6184            0.0000000000
     43467      6384  TIP3      H1            -20.4720634983      -33.8057282545      -40.1150024460  TIP3      6184            0.0000000000
     43468      6384  TIP3      H2            -20.5719065582      -32.7500044202      -39.0885315138  TIP3      6184            0.0000000000
     43469      6385  TIP3      OH2            -2.9573183099      -37.2893852371      -33.0843570012  TIP3      6185            0.0000000000
     43470      6385  TIP3      H1             -3.8837613017      -36.9741258357      -33.1043056133  TIP3      6185            0.0000000000
     43471      6385  TIP3      H2             -2.9702933144      -37.8004573504      -33.9014690439  TIP3      6185            0.0000000000
     43472      6386  TIP3      OH2            -2.9675471972      -37.3232880402      -48.4127528130  TIP3      6186            0.0000000000
     43473      6386  TIP3      H1             -2.5535176096      -38.0341312300      -48.9239868163  TIP3      6186            0.0000000000
     43474      6386  TIP3      H2             -2.2481652762      -36.6737871503      -48.4007823381  TIP3      6186            0.0000000000
     43475      6387  TIP3      OH2           -20.6654815092      -37.2973732508      -45.2318446747  TIP3      6187            0.0000000000
     43476      6387  TIP3      H1            -21.6052791022      -37.1171591058      -45.4115310414  TIP3      6187            0.0000000000
     43477      6387  TIP3      H2            -20.2515275806      -36.8367041465      -45.9875959086  TIP3      6187            0.0000000000
     43478      6388  TIP3      OH2            -5.9248975310      -22.3566422453      -43.3435618733  TIP3      6188            0.0000000000
     43479      6388  TIP3      H1             -5.2458417949      -22.6613423004      -43.9679790969  TIP3      6188            0.0000000000
     43480      6388  TIP3      H2             -5.4180473731      -21.8597825012      -42.6847764679  TIP3      6188            0.0000000000
     43481      6389  TIP3      OH2           -20.6592433222      -38.5804546166      -37.0251889237  TIP3      6189            0.0000000000
     43482      6389  TIP3      H1            -21.3193161863      -38.7510964995      -36.3198562129  TIP3      6189            0.0000000000
     43483      6389  TIP3      H2            -21.1617047072      -37.9516935521      -37.5889372270  TIP3      6189            0.0000000000
     43484      6390  TIP3      OH2           -18.4793572664      -25.4569502783      -32.8195484309  TIP3      6190            0.0000000000
     43485      6390  TIP3      H1            -19.3164202353      -25.2288332533      -33.2580952090  TIP3      6190            0.0000000000
     43486      6390  TIP3      H2            -18.7488123050      -25.5239476185      -31.9007099185  TIP3      6190            0.0000000000
     43487      6391  TIP3      OH2           -15.5815891058      -24.4386024696      -36.5390701474  TIP3      6191            0.0000000000
     43488      6391  TIP3      H1            -15.9092362750      -23.5709646878      -36.8122814604  TIP3      6191            0.0000000000
     43489      6391  TIP3      H2            -14.6549349657      -24.3568549960      -36.8450296642  TIP3      6191            0.0000000000
     43490      6392  TIP3      OH2           -11.2606918523      -23.0159852704      -33.6383274468  TIP3      6192            0.0000000000
     43491      6392  TIP3      H1            -11.1236732825      -23.3710238907      -32.7294786136  TIP3      6192            0.0000000000
     43492      6392  TIP3      H2            -10.3577186189      -22.7144897026      -33.8786748796  TIP3      6192            0.0000000000
     43493      6393  TIP3      OH2            -8.9762706011      -21.7491961114      -34.3243626561  TIP3      6193            0.0000000000
     43494      6393  TIP3      H1             -8.2423364648      -22.3342649327      -34.5638099207  TIP3      6193            0.0000000000
     43495      6393  TIP3      H2             -8.5990703806      -21.3111568352      -33.5317579000  TIP3      6193            0.0000000000
     43496      6394  TIP3      OH2            -3.7580873619      -38.9381798342      -35.4102150038  TIP3      6194            0.0000000000
     43497      6394  TIP3      H1             -4.6997943528      -38.7165587672      -35.5774088304  TIP3      6194            0.0000000000
     43498      6394  TIP3      H2             -3.6651079113      -39.8621276690      -35.6413688276  TIP3      6194            0.0000000000
     43499      6395  TIP3      OH2           -18.1565016462      -21.2075760107      -36.5491045056  TIP3      6195            0.0000000000
     43500      6395  TIP3      H1            -18.8886731950      -20.7045302264      -36.9426900998  TIP3      6195            0.0000000000
     43501      6395  TIP3      H2            -18.4663313028      -21.3950913864      -35.6514279273  TIP3      6195            0.0000000000
     43502      6396  TIP3      OH2           -15.6892713918      -21.6290493713      -37.4732181255  TIP3      6196            0.0000000000
     43503      6396  TIP3      H1            -16.5812850358      -21.4754670185      -37.0808545851  TIP3      6196            0.0000000000
     43504      6396  TIP3      H2            -15.7423712647      -21.0383632148      -38.2474765560  TIP3      6196            0.0000000000
     43505      6397  TIP3      OH2           -10.9827158967      -21.7146601776      -38.3022519956  TIP3      6197            0.0000000000
     43506      6397  TIP3      H1            -11.4430790138      -21.1585511230      -38.9487433481  TIP3      6197            0.0000000000
     43507      6397  TIP3      H2            -10.8509889113      -21.0832761726      -37.5656604626  TIP3      6197            0.0000000000
     43508      6398  TIP3      OH2            -8.6962615648      -22.9087167975      -37.2701202036  TIP3      6198            0.0000000000
     43509      6398  TIP3      H1             -9.5475004036      -22.6287879096      -37.6445658529  TIP3      6198            0.0000000000
     43510      6398  TIP3      H2             -8.2071824406      -22.0729143153      -37.3647209272  TIP3      6198            0.0000000000
     43511      6399  TIP3      OH2            -6.1123022747      -21.3373603898      -37.0548833122  TIP3      6199            0.0000000000
     43512      6399  TIP3      H1             -6.1628918118      -20.3779490469      -37.2820479305  TIP3      6199            0.0000000000
     43513      6399  TIP3      H2             -5.8940318895      -21.7123200682      -37.9318274533  TIP3      6199            0.0000000000
     43514      6400  TIP3      OH2           -18.6924069486      -22.5557066223      -39.6038937977  TIP3      6200            0.0000000000
     43515      6400  TIP3      H1            -18.7773480578      -23.0167288840      -38.7428463255  TIP3      6200            0.0000000000
     43516      6400  TIP3      H2            -17.8798745516      -22.9377400898      -39.9920709819  TIP3      6200            0.0000000000
     43517      6401  TIP3      OH2           -16.6206396535      -23.8459786554      -40.9487174184  TIP3      6201            0.0000000000
     43518      6401  TIP3      H1            -16.7843385246      -24.7793400140      -40.7150988640  TIP3      6201            0.0000000000
     43519      6401  TIP3      H2            -15.7649864223      -23.6888697022      -40.4973295246  TIP3      6201            0.0000000000
     43520      6402  TIP3      OH2           -14.0115791354      -23.3573840408      -40.0694551372  TIP3      6202            0.0000000000
     43521      6402  TIP3      H1            -13.8627939590      -24.2832603148      -40.3347303162  TIP3      6202            0.0000000000
     43522      6402  TIP3      H2            -13.9721722262      -23.4160617826      -39.1048779423  TIP3      6202            0.0000000000
     43523      6403  TIP3      OH2           -10.6048154920      -37.6651750628      -40.9534115319  TIP3      6203            0.0000000000
     43524      6403  TIP3      H1            -11.2092760914      -38.3398180824      -40.6077533488  TIP3      6203            0.0000000000
     43525      6403  TIP3      H2             -9.9815291493      -38.2099100765      -41.4562715686  TIP3      6203            0.0000000000
     43526      6404  TIP3      OH2            -5.3840267264      -38.8686446856      -40.5817961428  TIP3      6204            0.0000000000
     43527      6404  TIP3      H1             -4.7705311732      -38.9077572229      -41.3634405068  TIP3      6204            0.0000000000
     43528      6404  TIP3      H2             -6.2270742234      -39.1868699686      -40.9630490452  TIP3      6204            0.0000000000
     43529      6405  TIP3      OH2            -3.7723333392      -38.4193925160      -42.6317600333  TIP3      6205            0.0000000000
     43530      6405  TIP3      H1             -3.0847666300      -39.0293588057      -42.9703196701  TIP3      6205            0.0000000000
     43531      6405  TIP3      H2             -3.2633033047      -37.5819885860      -42.5073251466  TIP3      6205            0.0000000000
     43532      6406  TIP3      OH2           -18.2687335222      -39.1401859315      -43.0617535510  TIP3      6206            0.0000000000
     43533      6406  TIP3      H1            -18.9890900245      -39.3152022644      -43.6868162863  TIP3      6206            0.0000000000
     43534      6406  TIP3      H2            -17.7477613889      -39.9581905835      -43.1497195762  TIP3      6206            0.0000000000
     43535      6407  TIP3      OH2           -19.4142376527      -39.3226153977      -47.3605356000  TIP3      6207            0.0000000000
     43536      6407  TIP3      H1            -18.9478539101      -38.6771473992      -47.9167922236  TIP3      6207            0.0000000000
     43537      6407  TIP3      H2            -20.0091714854      -38.7532241662      -46.8534386299  TIP3      6207            0.0000000000
     43538      6408  TIP3      OH2           -13.8240642444      -38.7694471344      -43.4275833122  TIP3      6208            0.0000000000
     43539      6408  TIP3      H1            -12.8610531893      -38.7059569267      -43.4922296060  TIP3      6208            0.0000000000
     43540      6408  TIP3      H2            -13.8233880500      -39.2619269940      -42.6066002352  TIP3      6208            0.0000000000
     43541      6409  TIP3      OH2            -8.1820781751      -39.0237589397      -41.4801795101  TIP3      6209            0.0000000000
     43542      6409  TIP3      H1             -8.1072222965      -38.9382830695      -42.4482037817  TIP3      6209            0.0000000000
     43543      6409  TIP3      H2             -8.3514108565      -39.9801431769      -41.4349532283  TIP3      6209            0.0000000000
     43544      6410  TIP3      OH2            -6.7534649504      -39.0298034035      -45.9317444487  TIP3      6210            0.0000000000
     43545      6410  TIP3      H1             -7.5226929043      -38.4797682054      -46.1474361078  TIP3      6210            0.0000000000
     43546      6410  TIP3      H2             -7.0927850220      -39.9400975973      -45.8786170373  TIP3      6210            0.0000000000
     43547      6411  TIP3      OH2           -19.4629975504      -23.3742999844      -46.4325572917  TIP3      6211            0.0000000000
     43548      6411  TIP3      H1            -20.2103842314      -23.3924215518      -47.0487954548  TIP3      6211            0.0000000000
     43549      6411  TIP3      H2            -19.5053091217      -22.4412608022      -46.1629974024  TIP3      6211            0.0000000000
     43550      6412  TIP3      OH2           -17.6380846648      -37.4774171044      -48.8247301744  TIP3      6212            0.0000000000
     43551      6412  TIP3      H1            -17.0697338451      -38.0245971891      -49.3665937627  TIP3      6212            0.0000000000
     43552      6412  TIP3      H2            -16.9806081838      -37.0516946434      -48.2418009930  TIP3      6212            0.0000000000
     43553      6413  TIP3      OH2           -12.6298271149      -37.1444392832      -46.4228869453  TIP3      6213            0.0000000000
     43554      6413  TIP3      H1            -12.3068597597      -37.7252975336      -45.7194532511  TIP3      6213            0.0000000000
     43555      6413  TIP3      H2            -12.5261092570      -36.2909542994      -45.9511019049  TIP3      6213            0.0000000000
     43556      6414  TIP3      OH2           -10.6431639422      -22.0784208279      -48.0156079779  TIP3      6214            0.0000000000
     43557      6414  TIP3      H1             -9.7069560575      -21.8240845016      -48.1888751031  TIP3      6214            0.0000000000
     43558      6414  TIP3      H2            -10.8275695206      -22.5763958523      -48.8368480994  TIP3      6214            0.0000000000
     43559      6415  TIP3      OH2            -3.9103718627      -22.5649076623      -45.3126250720  TIP3      6215            0.0000000000
     43560      6415  TIP3      H1             -4.1546776930      -23.3499449939      -45.8589168459  TIP3      6215            0.0000000000
     43561      6415  TIP3      H2             -4.0382100565      -21.8220108350      -45.9317225156  TIP3      6215            0.0000000000
     43562      6416  TIP3      OH2           -18.2818520976      -38.4118779521      -33.6619747694  TIP3      6216            0.0000000000
     43563      6416  TIP3      H1            -18.6476232402      -39.2385791573      -33.2538052210  TIP3      6216            0.0000000000
     43564      6416  TIP3      H2            -17.3768408435      -38.5869894226      -33.3163663835  TIP3      6216            0.0000000000
     43565      6417  TIP3      OH2           -16.1485289165      -39.0457575155      -31.9409791771  TIP3      6217            0.0000000000
     43566      6417  TIP3      H1            -15.3596186380      -39.4241727507      -32.3725218045  TIP3      6217            0.0000000000
     43567      6417  TIP3      H2            -16.6710836941      -39.8521711900      -31.7315453170  TIP3      6217            0.0000000000
     43568      6418  TIP3      OH2           -17.3638663117      -22.1815383853      -49.0879045324  TIP3      6218            0.0000000000
     43569      6418  TIP3      H1            -17.9320515120      -22.1686352733      -48.3128622374  TIP3      6218            0.0000000000
     43570      6418  TIP3      H2            -16.8714108383      -23.0125317601      -49.0584182599  TIP3      6218            0.0000000000
     43571      6419  TIP3      OH2            -7.7274347584       40.3636209542      -31.8499548978  TIP3      6219            0.0000000000
     43572      6419  TIP3      H1             -7.8567328196       39.6546558876      -31.1920464949  TIP3      6219            0.0000000000
     43573      6419  TIP3      H2             -6.9634493953       39.9748821197      -32.3068873724  TIP3      6219            0.0000000000
     43574      6420  TIP3      OH2            -4.6951778524      -23.8219216709      -33.2111041673  TIP3      6220            0.0000000000
     43575      6420  TIP3      H1             -5.4991323447      -23.9576841065      -33.7584989533  TIP3      6220            0.0000000000
     43576      6420  TIP3      H2             -4.8117966070      -22.8751021505      -32.9935501813  TIP3      6220            0.0000000000
     43577      6421  TIP3      OH2             9.7458656390      -29.9401598707      -43.2296238810  TIP3      6221            0.0000000000
     43578      6421  TIP3      H1              9.7331192354      -28.9616045251      -43.2678376397  TIP3      6221            0.0000000000
     43579      6421  TIP3      H2              9.0206535413      -30.1770283933      -43.8297373843  TIP3      6221            0.0000000000
     43580      6422  TIP3      OH2             8.5857464383      -30.6763750034      -39.7200474652  TIP3      6222            0.0000000000
     43581      6422  TIP3      H1              8.6079550376      -31.3295058921      -39.0012644155  TIP3      6222            0.0000000000
     43582      6422  TIP3      H2              8.2482118034      -31.1944836458      -40.4707963491  TIP3      6222            0.0000000000
     43583      6423  TIP3      OH2             0.9563726135      -31.0118544403      -38.1775447754  TIP3      6223            0.0000000000
     43584      6423  TIP3      H1              1.0403755995      -31.7013282309      -37.4855841749  TIP3      6223            0.0000000000
     43585      6423  TIP3      H2              1.7066315228      -30.4427943749      -37.9534810178  TIP3      6223            0.0000000000
     43586      6424  TIP3      OH2            12.2809159801      -27.7359188848      -41.4403123963  TIP3      6224            0.0000000000
     43587      6424  TIP3      H1             11.8860235543      -28.4682261694      -40.9529936265  TIP3      6224            0.0000000000
     43588      6424  TIP3      H2             12.3140206931      -27.0413265862      -40.7565229665  TIP3      6224            0.0000000000
     43589      6425  TIP3      OH2             1.8824551151      -26.5642302030      -39.6786315510  TIP3      6225            0.0000000000
     43590      6425  TIP3      H1              1.5734641438      -27.4349117716      -39.9938704020  TIP3      6225            0.0000000000
     43591      6425  TIP3      H2              2.8378936558      -26.7472505113      -39.6320976395  TIP3      6225            0.0000000000
     43592      6426  TIP3      OH2            -1.4856147662      -33.0107726556      -44.1926405315  TIP3      6226            0.0000000000
     43593      6426  TIP3      H1             -1.9148733218      -32.1363735128      -44.2459406136  TIP3      6226            0.0000000000
     43594      6426  TIP3      H2             -2.0393949614      -33.5492589079      -44.7724745058  TIP3      6226            0.0000000000
     43595      6427  TIP3      OH2            -0.7657458756      -30.7823705485      -42.0361933382  TIP3      6227            0.0000000000
     43596      6427  TIP3      H1             -0.4900587847      -31.6037229182      -41.5883007744  TIP3      6227            0.0000000000
     43597      6427  TIP3      H2             -0.0735587177      -30.6757625698      -42.7059007325  TIP3      6227            0.0000000000
     43598      6428  TIP3      OH2             9.4092237264      -22.5847481260      -41.1950566889  TIP3      6228            0.0000000000
     43599      6428  TIP3      H1             10.0582060358      -23.2705131215      -41.4932874149  TIP3      6228            0.0000000000
     43600      6428  TIP3      H2              9.2015468786      -22.9309697285      -40.3247156682  TIP3      6228            0.0000000000
     43601      6429  TIP3      OH2             6.9731864259      -28.3017119920      -39.2589966151  TIP3      6229            0.0000000000
     43602      6429  TIP3      H1              7.3187137184      -28.9227476895      -39.9186042842  TIP3      6229            0.0000000000
     43603      6429  TIP3      H2              7.7857561698      -28.1286180153      -38.7633917085  TIP3      6229            0.0000000000
     43604      6430  TIP3      OH2            15.6008352712      -36.6531721358      -38.5255362838  TIP3      6230            0.0000000000
     43605      6430  TIP3      H1             15.7628178304      -36.0420904185      -37.7675112880  TIP3      6230            0.0000000000
     43606      6430  TIP3      H2             16.1256994012      -36.2160355633      -39.2134802224  TIP3      6230            0.0000000000
     43607      6431  TIP3      OH2            10.1325916055      -33.8399104470      -38.9370456918  TIP3      6231            0.0000000000
     43608      6431  TIP3      H1             10.3212784040      -34.7984785439      -38.9351565274  TIP3      6231            0.0000000000
     43609      6431  TIP3      H2             10.0487855352      -33.6741682067      -39.8938779850  TIP3      6231            0.0000000000
     43610      6432  TIP3      OH2             3.2534005236      -35.7223578812      -41.7317684609  TIP3      6232            0.0000000000
     43611      6432  TIP3      H1              3.3702160545      -34.8838194996      -42.2252161391  TIP3      6232            0.0000000000
     43612      6432  TIP3      H2              2.8810737758      -36.3040586095      -42.4297172281  TIP3      6232            0.0000000000
     43613      6433  TIP3      OH2            11.0259758370      -35.6928731728      -43.4022988890  TIP3      6233            0.0000000000
     43614      6433  TIP3      H1             11.6468062122      -35.9579159145      -42.6844917205  TIP3      6233            0.0000000000
     43615      6433  TIP3      H2             11.5709604879      -35.0660693102      -43.8996915370  TIP3      6233            0.0000000000
     43616      6434  TIP3      OH2            -0.1245985098      -33.3099284971      -40.9923726945  TIP3      6234            0.0000000000
     43617      6434  TIP3      H1              0.5484227507      -33.8578085089      -40.5379187988  TIP3      6234            0.0000000000
     43618      6434  TIP3      H2             -0.0119448064      -33.6323125802      -41.9011393469  TIP3      6234            0.0000000000
     43619      6435  TIP3      OH2             5.0427369810      -31.7665896589      -41.6721731136  TIP3      6235            0.0000000000
     43620      6435  TIP3      H1              5.7147039252      -32.3475264764      -41.2740479493  TIP3      6235            0.0000000000
     43621      6435  TIP3      H2              4.5295942644      -32.4245369353      -42.1802370154  TIP3      6235            0.0000000000
     43622      6436  TIP3      OH2            16.0283509367      -35.2497594433      -36.2644500582  TIP3      6236            0.0000000000
     43623      6436  TIP3      H1             15.4145945130      -34.4835182226      -36.3745603393  TIP3      6236            0.0000000000
     43624      6436  TIP3      H2             16.0685819048      -35.3095402178      -35.2998965274  TIP3      6236            0.0000000000
     43625      6437  TIP3      OH2             2.1817032495      -36.8148482008      -37.6748501792  TIP3      6237            0.0000000000
     43626      6437  TIP3      H1              1.8782968299      -36.2917580017      -38.4442657383  TIP3      6237            0.0000000000
     43627      6437  TIP3      H2              1.4768410891      -36.6099946842      -37.0086302269  TIP3      6237            0.0000000000
     43628      6438  TIP3      OH2             9.4455755804      -27.3554013758      -44.1534098469  TIP3      6238            0.0000000000
     43629      6438  TIP3      H1              9.1694224105      -27.6417746337      -45.0336869917  TIP3      6238            0.0000000000
     43630      6438  TIP3      H2              9.1478900567      -26.4183454313      -44.1041301716  TIP3      6238            0.0000000000
     43631      6439  TIP3      OH2             4.6807170199      -29.1921171286      -37.4484358353  TIP3      6239            0.0000000000
     43632      6439  TIP3      H1              3.9758559590      -28.5467836081      -37.2292426071  TIP3      6239            0.0000000000
     43633      6439  TIP3      H2              5.3854444679      -28.5941810311      -37.7437876941  TIP3      6239            0.0000000000
     43634      6440  TIP3      OH2            12.7923820491      -36.2642174594      -41.3635597109  TIP3      6240            0.0000000000
     43635      6440  TIP3      H1             12.6274967517      -37.0721648612      -40.8443638263  TIP3      6240            0.0000000000
     43636      6440  TIP3      H2             13.4789560067      -35.8611548120      -40.8091557947  TIP3      6240            0.0000000000
     43637      6441  TIP3      OH2             1.7280067314      -34.9561709903      -39.6686722055  TIP3      6241            0.0000000000
     43638      6441  TIP3      H1              2.3674225732      -34.2886685019      -39.3374192438  TIP3      6241            0.0000000000
     43639      6441  TIP3      H2              2.2574641786      -35.3745221103      -40.3945481271  TIP3      6241            0.0000000000
     43640      6442  TIP3      OH2             3.1320532282      -27.1817090168      -36.6284167597  TIP3      6242            0.0000000000
     43641      6442  TIP3      H1              3.0795732411      -26.2711777617      -36.9713476491  TIP3      6242            0.0000000000
     43642      6442  TIP3      H2              2.2469851914      -27.2634160567      -36.1891524801  TIP3      6242            0.0000000000
     43643      6443  TIP3      OH2            -0.8141065773      -27.5764725353      -45.8068875891  TIP3      6243            0.0000000000
     43644      6443  TIP3      H1             -1.0247905805      -27.2598841772      -46.7082778172  TIP3      6243            0.0000000000
     43645      6443  TIP3      H2             -0.7199470758      -26.7320071610      -45.3237515713  TIP3      6243            0.0000000000
     43646      6444  TIP3      OH2            12.8223123719      -25.8888212443      -39.0752993507  TIP3      6244            0.0000000000
     43647      6444  TIP3      H1             11.8524479088      -25.7948390697      -38.9639199029  TIP3      6244            0.0000000000
     43648      6444  TIP3      H2             13.0822151736      -24.9728121051      -39.2810993872  TIP3      6244            0.0000000000
     43649      6445  TIP3      OH2            13.1916874973      -37.6132569165      -37.5921161524  TIP3      6245            0.0000000000
     43650      6445  TIP3      H1             12.4196563247      -37.0676751933      -37.7963983137  TIP3      6245            0.0000000000
     43651      6445  TIP3      H2             13.8511520175      -37.2326428877      -38.2094721771  TIP3      6245            0.0000000000
     43652      6446  TIP3      OH2             6.1401480609      -39.4790912957      -40.1222502528  TIP3      6246            0.0000000000
     43653      6446  TIP3      H1              6.0120229060      -40.4365444793      -40.1201922089  TIP3      6246            0.0000000000
     43654      6446  TIP3      H2              5.2471916171      -39.1578943015      -39.9063387070  TIP3      6246            0.0000000000
     43655      6447  TIP3      OH2            11.0852576665      -24.1201542543      -42.4772560114  TIP3      6247            0.0000000000
     43656      6447  TIP3      H1             11.5047419451      -24.8398412472      -42.9948227066  TIP3      6247            0.0000000000
     43657      6447  TIP3      H2             11.5132342130      -23.3326657099      -42.8786842016  TIP3      6247            0.0000000000
     43658      6448  TIP3      OH2            12.2891515459      -26.2009395921      -43.9508522761  TIP3      6248            0.0000000000
     43659      6448  TIP3      H1             11.9996275098      -26.8857309885      -44.5798967222  TIP3      6248            0.0000000000
     43660      6448  TIP3      H2             12.3237434756      -26.7026556448      -43.1160863995  TIP3      6248            0.0000000000
     43661      6449  TIP3      OH2            13.8965005843      -27.5447285120      -35.4790936890  TIP3      6249            0.0000000000
     43662      6449  TIP3      H1             14.0299952284      -28.2676398287      -36.1300358752  TIP3      6249            0.0000000000
     43663      6449  TIP3      H2             14.1520381340      -26.7442928357      -35.9650568751  TIP3      6249            0.0000000000
     43664      6450  TIP3      OH2             8.3889708794      -30.6727073806      -45.7197064306  TIP3      6250            0.0000000000
     43665      6450  TIP3      H1              7.6975644979      -30.0919467330      -46.0925177501  TIP3      6250            0.0000000000
     43666      6450  TIP3      H2              9.1086869563      -30.5979855218      -46.3751367574  TIP3      6250            0.0000000000
     43667      6451  TIP3      OH2             8.5090266488      -32.2018461918      -48.7063253711  TIP3      6251            0.0000000000
     43668      6451  TIP3      H1              9.2096838172      -32.1703486028      -48.0245667772  TIP3      6251            0.0000000000
     43669      6451  TIP3      H2              8.8504358291      -32.9271972823      -49.2573585257  TIP3      6251            0.0000000000
     43670      6452  TIP3      OH2            15.8458549862      -31.2854487646      -37.4023028908  TIP3      6252            0.0000000000
     43671      6452  TIP3      H1             15.1336620728      -30.5930010454      -37.4037679132  TIP3      6252            0.0000000000
     43672      6452  TIP3      H2             16.2662872948      -31.0422630091      -38.2440534666  TIP3      6252            0.0000000000
     43673      6453  TIP3      OH2            11.8403332038      -30.4966163007      -44.7729001597  TIP3      6253            0.0000000000
     43674      6453  TIP3      H1             11.0983097344      -30.2539424712      -44.1692791546  TIP3      6253            0.0000000000
     43675      6453  TIP3      H2             12.3269312850      -31.1660776739      -44.2611470616  TIP3      6253            0.0000000000
     43676      6454  TIP3      OH2            11.3784029720      -32.7092740088      -35.5398841338  TIP3      6254            0.0000000000
     43677      6454  TIP3      H1             11.7764793589      -31.8798591155      -35.1591797746  TIP3      6254            0.0000000000
     43678      6454  TIP3      H2             11.1667035629      -32.1970306658      -36.3482900006  TIP3      6254            0.0000000000
     43679      6455  TIP3      OH2             3.4630599819      -29.8360213262      -42.8773932196  TIP3      6255            0.0000000000
     43680      6455  TIP3      H1              3.1448988473      -30.2185901390      -43.7333817613  TIP3      6255            0.0000000000
     43681      6455  TIP3      H2              4.0782439751      -30.5308324166      -42.5447174219  TIP3      6255            0.0000000000
     43682      6456  TIP3      OH2             4.7848178502      -26.4554749431      -40.1934386831  TIP3      6256            0.0000000000
     43683      6456  TIP3      H1              4.7783998451      -26.9783828391      -41.0069261245  TIP3      6256            0.0000000000
     43684      6456  TIP3      H2              5.5664386654      -26.8137716434      -39.7412398537  TIP3      6256            0.0000000000
     43685      6457  TIP3      OH2             3.7896155137      -31.0944878755      -39.2149840417  TIP3      6257            0.0000000000
     43686      6457  TIP3      H1              4.3430386131      -30.9951839063      -40.0145900176  TIP3      6257            0.0000000000
     43687      6457  TIP3      H2              4.1756170011      -30.4293245016      -38.6055383931  TIP3      6257            0.0000000000
     43688      6458  TIP3      OH2            10.2161075734      -25.5126640238      -38.5040587476  TIP3      6258            0.0000000000
     43689      6458  TIP3      H1              9.9141050563      -24.8608700665      -37.8597333284  TIP3      6258            0.0000000000
     43690      6458  TIP3      H2              9.9733447693      -26.3739278391      -38.0883474043  TIP3      6258            0.0000000000
     43691      6459  TIP3      OH2             4.7692931098      -26.6454129356      -34.5287738160  TIP3      6259            0.0000000000
     43692      6459  TIP3      H1              4.3276632032      -25.9271490177      -34.0278381410  TIP3      6259            0.0000000000
     43693      6459  TIP3      H2              4.0902310766      -26.8646780503      -35.2122997859  TIP3      6259            0.0000000000
     43694      6460  TIP3      OH2            10.6872593009      -31.2949506316      -47.1118241621  TIP3      6260            0.0000000000
     43695      6460  TIP3      H1             11.2652555757      -31.1166852029      -46.3281847996  TIP3      6260            0.0000000000
     43696      6460  TIP3      H2             11.1821919042      -30.8285050432      -47.8260597876  TIP3      6260            0.0000000000
     43697      6461  TIP3      OH2             1.6907880792      -30.5014821850      -35.3678665848  TIP3      6261            0.0000000000
     43698      6461  TIP3      H1              1.7422099015      -29.8361930535      -34.6560048648  TIP3      6261            0.0000000000
     43699      6461  TIP3      H2              0.7473320996      -30.4136706061      -35.5755768601  TIP3      6261            0.0000000000
     43700      6462  TIP3      OH2             8.4530362469      -24.5661121348      -43.6670208337  TIP3      6262            0.0000000000
     43701      6462  TIP3      H1              8.8740884633      -24.2693554145      -42.8516280557  TIP3      6262            0.0000000000
     43702      6462  TIP3      H2              7.8789910604      -23.8239614132      -43.8853521857  TIP3      6262            0.0000000000
     43703      6463  TIP3      OH2             2.9958860635      -24.6304859511      -33.7722139648  TIP3      6263            0.0000000000
     43704      6463  TIP3      H1              2.9322967357      -24.7254609462      -34.7380574098  TIP3      6263            0.0000000000
     43705      6463  TIP3      H2              2.0658251280      -24.7612383615      -33.5037142748  TIP3      6263            0.0000000000
     43706      6464  TIP3      OH2            14.4787562689      -39.5324959765      -47.2424121659  TIP3      6264            0.0000000000
     43707      6464  TIP3      H1             13.5561039492      -39.4623160420      -46.9460592228  TIP3      6264            0.0000000000
     43708      6464  TIP3      H2             14.6421794503      -38.6969205648      -47.7001402803  TIP3      6264            0.0000000000
     43709      6465  TIP3      OH2             2.4167337699      -30.8142991327      -45.2312197924  TIP3      6265            0.0000000000
     43710      6465  TIP3      H1              2.1381513287      -30.0445449443      -45.7703219308  TIP3      6265            0.0000000000
     43711      6465  TIP3      H2              1.7816284628      -31.4895958907      -45.4784569065  TIP3      6265            0.0000000000
     43712      6466  TIP3      OH2            15.5337460172      -25.1847183811      -48.7505823270  TIP3      6266            0.0000000000
     43713      6466  TIP3      H1             15.6988792686      -24.2309624665      -48.6696394202  TIP3      6266            0.0000000000
     43714      6466  TIP3      H2             16.4264958462      -25.5571650962      -48.8555653258  TIP3      6266            0.0000000000
     43715      6467  TIP3      OH2            -1.4770594416      -28.3815316632      -36.3566626776  TIP3      6267            0.0000000000
     43716      6467  TIP3      H1             -1.9185341242      -28.4658728481      -37.2232071684  TIP3      6267            0.0000000000
     43717      6467  TIP3      H2             -1.3923215130      -29.3313917189      -36.1439261756  TIP3      6267            0.0000000000
     43718      6468  TIP3      OH2            -1.7164576358      -25.6521401254      -39.5838849389  TIP3      6268            0.0000000000
     43719      6468  TIP3      H1             -0.7580497979      -25.7667814979      -39.6058477809  TIP3      6268            0.0000000000
     43720      6468  TIP3      H2             -1.7978823493      -24.8324005164      -39.0817634237  TIP3      6268            0.0000000000
     43721      6469  TIP3      OH2            16.5227264546      -24.9420875860      -33.8957763480  TIP3      6269            0.0000000000
     43722      6469  TIP3      H1             16.4100146944      -25.9035395076      -33.9165755763  TIP3      6269            0.0000000000
     43723      6469  TIP3      H2             15.6446156471      -24.7063144317      -33.5124781521  TIP3      6269            0.0000000000
     43724      6470  TIP3      OH2             7.5289792553      -25.4749846723      -34.9406819972  TIP3      6270            0.0000000000
     43725      6470  TIP3      H1              7.5332544339      -24.5613496844      -34.5438932366  TIP3      6270            0.0000000000
     43726      6470  TIP3      H2              6.5957544166      -25.7475695183      -34.8062572631  TIP3      6270            0.0000000000
     43727      6471  TIP3      OH2             7.9119596687      -21.6573194096      -45.2341738053  TIP3      6271            0.0000000000
     43728      6471  TIP3      H1              7.8755457468      -21.7313999506      -46.1963358623  TIP3      6271            0.0000000000
     43729      6471  TIP3      H2              7.9422226438      -20.7002875874      -45.0699874378  TIP3      6271            0.0000000000
     43730      6472  TIP3      OH2             1.5578054516      -22.7688519736      -43.4059399385  TIP3      6272            0.0000000000
     43731      6472  TIP3      H1              1.7163878406      -23.1930564475      -42.5325870988  TIP3      6272            0.0000000000
     43732      6472  TIP3      H2              0.7125242427      -23.1927425523      -43.6345391342  TIP3      6272            0.0000000000
     43733      6473  TIP3      OH2            10.8602271893      -22.3964462395      -48.2184573737  TIP3      6273            0.0000000000
     43734      6473  TIP3      H1             11.3714074416      -23.1212053621      -48.6574050286  TIP3      6273            0.0000000000
     43735      6473  TIP3      H2             11.0060699414      -22.6909877876      -47.3053932501  TIP3      6273            0.0000000000
     43736      6474  TIP3      OH2            10.6483445704      -22.5021255686      -45.4397379306  TIP3      6274            0.0000000000
     43737      6474  TIP3      H1              9.6896601926      -22.4501432337      -45.2879923464  TIP3      6274            0.0000000000
     43738      6474  TIP3      H2             10.8967430301      -23.2642941895      -44.8953624842  TIP3      6274            0.0000000000
     43739      6475  TIP3      OH2            13.6618665281      -33.4548527254      -33.4440939861  TIP3      6275            0.0000000000
     43740      6475  TIP3      H1             13.1939641890      -32.9892007762      -34.1543734671  TIP3      6275            0.0000000000
     43741      6475  TIP3      H2             13.6376400977      -34.3787072411      -33.7457544451  TIP3      6275            0.0000000000
     43742      6476  TIP3      OH2             0.8101848954      -27.0680624536      -35.4243147367  TIP3      6276            0.0000000000
     43743      6476  TIP3      H1              1.0317427017      -27.4335715719      -34.5416771818  TIP3      6276            0.0000000000
     43744      6476  TIP3      H2             -0.0586888141      -27.4669440618      -35.6349676891  TIP3      6276            0.0000000000
     43745      6477  TIP3      OH2             3.5286137575      -38.6024617360      -39.3988509968  TIP3      6277            0.0000000000
     43746      6477  TIP3      H1              2.6584609309      -38.6911432474      -39.8443344778  TIP3      6277            0.0000000000
     43747      6477  TIP3      H2              3.3666336616      -37.7616746755      -38.9550720291  TIP3      6277            0.0000000000
     43748      6478  TIP3      OH2             8.0607766441      -38.6368819005      -35.8453016512  TIP3      6278            0.0000000000
     43749      6478  TIP3      H1              8.5368972024      -39.3360648995      -35.3778619041  TIP3      6278            0.0000000000
     43750      6478  TIP3      H2              7.1622256894      -39.0231819025      -35.9671648513  TIP3      6278            0.0000000000
     43751      6479  TIP3      OH2            11.4052591902      -35.2150455144      -35.2151062221  TIP3      6279            0.0000000000
     43752      6479  TIP3      H1             10.8510365226      -35.2852278103      -34.4118509475  TIP3      6279            0.0000000000
     43753      6479  TIP3      H2             11.2765765481      -34.2555683822      -35.4412776847  TIP3      6279            0.0000000000
     43754      6480  TIP3      OH2            12.4028976979      -30.3528846905      -48.9226305336  TIP3      6280            0.0000000000
     43755      6480  TIP3      H1             12.3044445710      -30.5362021195      -49.8685848854  TIP3      6280            0.0000000000
     43756      6480  TIP3      H2             13.2115770434      -29.8119319769      -49.0472589939  TIP3      6280            0.0000000000
     43757      6481  TIP3      OH2             7.8158919371      -36.3708448363      -48.7660147143  TIP3      6281            0.0000000000
     43758      6481  TIP3      H1              7.4345717107      -36.4115105190      -47.8656558172  TIP3      6281            0.0000000000
     43759      6481  TIP3      H2              7.4665149441      -37.2127115980      -49.0917561865  TIP3      6281            0.0000000000
     43760      6482  TIP3      OH2             3.5823071401      -33.6234747705      -38.2144191937  TIP3      6282            0.0000000000
     43761      6482  TIP3      H1              2.8500624435      -33.6300064201      -37.5762514490  TIP3      6282            0.0000000000
     43762      6482  TIP3      H2              3.5446285133      -32.7144936223      -38.5905024012  TIP3      6282            0.0000000000
     43763      6483  TIP3      OH2             3.5519224163      -33.5272566015      -43.3505671649  TIP3      6283            0.0000000000
     43764      6483  TIP3      H1              2.6115744138      -33.7536881542      -43.4932324115  TIP3      6283            0.0000000000
     43765      6483  TIP3      H2              3.9290712992      -33.7896700022      -44.2126354698  TIP3      6283            0.0000000000
     43766      6484  TIP3      OH2             9.0758256521      -32.9938235758      -44.6124529233  TIP3      6284            0.0000000000
     43767      6484  TIP3      H1              8.6897518874      -32.1635346629      -44.9673488409  TIP3      6284            0.0000000000
     43768      6484  TIP3      H2              9.7868550614      -33.1779571162      -45.2525372631  TIP3      6284            0.0000000000
     43769      6485  TIP3      OH2             8.1056127174      -32.7802113037      -33.1313653580  TIP3      6285            0.0000000000
     43770      6485  TIP3      H1              7.6066594058      -33.5816951845      -32.8394789143  TIP3      6285            0.0000000000
     43771      6485  TIP3      H2              8.9686887997      -32.9003450118      -32.6960475424  TIP3      6285            0.0000000000
     43772      6486  TIP3      OH2            10.1176614267      -33.5231427521      -41.7396581720  TIP3      6286            0.0000000000
     43773      6486  TIP3      H1              9.8254743596      -32.9547025426      -42.4740102703  TIP3      6286            0.0000000000
     43774      6486  TIP3      H2             10.2082737279      -34.3711098302      -42.2124326835  TIP3      6286            0.0000000000
     43775      6487  TIP3      OH2             1.2134057481      -33.3671762043      -36.5421274634  TIP3      6287            0.0000000000
     43776      6487  TIP3      H1              1.2998634490      -32.9665264105      -35.6599655327  TIP3      6287            0.0000000000
     43777      6487  TIP3      H2              0.7704021174      -34.2036405611      -36.3357643161  TIP3      6287            0.0000000000
     43778      6488  TIP3      OH2             4.6211681019      -35.9057132902      -49.6255471630  TIP3      6288            0.0000000000
     43779      6488  TIP3      H1              4.1711072088      -36.4165496373      -48.9259415448  TIP3      6288            0.0000000000
     43780      6488  TIP3      H2              3.8962067448      -35.6611055100      -50.2081575403  TIP3      6288            0.0000000000
     43781      6489  TIP3      OH2            -2.1540439771      -36.2660646098      -42.5644007955  TIP3      6289            0.0000000000
     43782      6489  TIP3      H1             -1.4683646901      -36.2466441161      -41.8672553003  TIP3      6289            0.0000000000
     43783      6489  TIP3      H2             -1.6826658236      -36.6098932151      -43.3416473872  TIP3      6289            0.0000000000
     43784      6490  TIP3      OH2            -0.8606561732      -35.5279624047      -47.1299847828  TIP3      6290            0.0000000000
     43785      6490  TIP3      H1             -0.3501652949      -34.9612678944      -47.7476493513  TIP3      6290            0.0000000000
     43786      6490  TIP3      H2             -1.5495170252      -34.8883703116      -46.8693420466  TIP3      6290            0.0000000000
     43787      6491  TIP3      OH2             9.1991572000      -31.9232864618      -37.2287158920  TIP3      6291            0.0000000000
     43788      6491  TIP3      H1              9.7006930707      -32.5838512720      -37.7468911063  TIP3      6291            0.0000000000
     43789      6491  TIP3      H2              8.8552619353      -32.4563108221      -36.4896320005  TIP3      6291            0.0000000000
     43790      6492  TIP3      OH2             6.1072333580      -35.9520099724      -42.3562195502  TIP3      6292            0.0000000000
     43791      6492  TIP3      H1              5.1735317375      -35.9902982994      -42.0590463141  TIP3      6292            0.0000000000
     43792      6492  TIP3      H2              6.5916268823      -36.1139169869      -41.5298714446  TIP3      6292            0.0000000000
     43793      6493  TIP3      OH2             0.9122534463      -34.4129608864      -43.4784293348  TIP3      6293            0.0000000000
     43794      6493  TIP3      H1              0.0403740740      -34.2562395880      -43.8906373173  TIP3      6293            0.0000000000
     43795      6493  TIP3      H2              1.2088903402      -35.2390928114      -43.8978705711  TIP3      6293            0.0000000000
     43796      6494  TIP3      OH2             4.5658383744      -34.3532849968      -45.8284972950  TIP3      6294            0.0000000000
     43797      6494  TIP3      H1              5.5252271636      -34.2598679019      -45.6745838529  TIP3      6294            0.0000000000
     43798      6494  TIP3      H2              4.3324403537      -33.6943123614      -46.5125267970  TIP3      6294            0.0000000000
     43799      6495  TIP3      OH2            10.5220218761      -36.7616336024      -39.1075500463  TIP3      6295            0.0000000000
     43800      6495  TIP3      H1              9.8312898926      -36.6552166290      -38.4126695505  TIP3      6295            0.0000000000
     43801      6495  TIP3      H2             10.0154093628      -37.0166149440      -39.8938707253  TIP3      6295            0.0000000000
     43802      6496  TIP3      OH2             3.2811682647      -33.1517138616      -48.2404963311  TIP3      6296            0.0000000000
     43803      6496  TIP3      H1              2.6985422770      -33.5484879945      -48.8953310231  TIP3      6296            0.0000000000
     43804      6496  TIP3      H2              4.0920949082      -32.9628337732      -48.7380026256  TIP3      6296            0.0000000000
     43805      6497  TIP3      OH2            13.7185698880      -21.0723820416      -32.7827373587  TIP3      6297            0.0000000000
     43806      6497  TIP3      H1             13.9827310850      -20.6862381028      -33.6369476262  TIP3      6297            0.0000000000
     43807      6497  TIP3      H2             14.4419050466      -20.7442676013      -32.2252705529  TIP3      6297            0.0000000000
     43808      6498  TIP3      OH2             1.3900361248      -28.6073542946      -33.2108872453  TIP3      6298            0.0000000000
     43809      6498  TIP3      H1              2.1089559333      -28.3601806723      -32.6068677086  TIP3      6298            0.0000000000
     43810      6498  TIP3      H2              0.6168709506      -28.5272837376      -32.6100799597  TIP3      6298            0.0000000000
     43811      6499  TIP3      OH2             7.3937039222      -33.2031854283      -40.4606677461  TIP3      6299            0.0000000000
     43812      6499  TIP3      H1              7.9956993749      -33.7450937287      -40.9862269173  TIP3      6299            0.0000000000
     43813      6499  TIP3      H2              7.2563794141      -33.7362131023      -39.6656596789  TIP3      6299            0.0000000000
     43814      6500  TIP3      OH2             2.3994909931      -37.0856227729      -43.9724518275  TIP3      6300            0.0000000000
     43815      6500  TIP3      H1              2.0790210383      -37.9978433302      -44.0551699542  TIP3      6300            0.0000000000
     43816      6500  TIP3      H2              3.1711261802      -37.1322861786      -44.5603799789  TIP3      6300            0.0000000000
     43817      6501  TIP3      OH2             6.0369580417      -34.8563872635      -38.0571733094  TIP3      6301            0.0000000000
     43818      6501  TIP3      H1              5.2009840935      -34.3549427411      -37.9465992099  TIP3      6301            0.0000000000
     43819      6501  TIP3      H2              6.5875397236      -34.5293390887      -37.3206794821  TIP3      6301            0.0000000000
     43820      6502  TIP3      OH2             6.6278659258      -28.6486552180      -46.3338353824  TIP3      6302            0.0000000000
     43821      6502  TIP3      H1              5.8227614999      -29.1048861746      -46.6606851034  TIP3      6302            0.0000000000
     43822      6502  TIP3      H2              6.4031671712      -28.5172134302      -45.3897886754  TIP3      6302            0.0000000000
     43823      6503  TIP3      OH2            14.0973974223      -29.5269097257      -38.1805156770  TIP3      6303            0.0000000000
     43824      6503  TIP3      H1             14.4950013025      -28.6827511520      -38.4353626540  TIP3      6303            0.0000000000
     43825      6503  TIP3      H2             13.1402854222      -29.3541645649      -38.0433799578  TIP3      6303            0.0000000000
     43826      6504  TIP3      OH2            10.3878632851      -35.7918602053      -47.9758429070  TIP3      6304            0.0000000000
     43827      6504  TIP3      H1              9.4806271061      -35.6379340719      -48.2831174064  TIP3      6304            0.0000000000
     43828      6504  TIP3      H2             10.7536613084      -34.8963520095      -47.8326271490  TIP3      6304            0.0000000000
     43829      6505  TIP3      OH2             8.2356698601      -28.3005173250      -35.0025510901  TIP3      6305            0.0000000000
     43830      6505  TIP3      H1              7.7363101318      -28.8350845209      -34.3617561951  TIP3      6305            0.0000000000
     43831      6505  TIP3      H2              7.7375898253      -27.4719115266      -35.0300972549  TIP3      6305            0.0000000000
     43832      6506  TIP3      OH2            11.1852580239      -33.8700793183      -46.5046619633  TIP3      6306            0.0000000000
     43833      6506  TIP3      H1             12.0673927294      -34.0386351854      -46.1132995459  TIP3      6306            0.0000000000
     43834      6506  TIP3      H2             11.3008429620      -33.0645713205      -47.0281363377  TIP3      6306            0.0000000000
     43835      6507  TIP3      OH2             1.7299994716      -29.2453102216      -40.5412659849  TIP3      6307            0.0000000000
     43836      6507  TIP3      H1              2.4088320934      -29.3323382105      -41.2368785033  TIP3      6307            0.0000000000
     43837      6507  TIP3      H2              1.7859670534      -30.1056115025      -40.0878860091  TIP3      6307            0.0000000000
     43838      6508  TIP3      OH2             8.7465317084      -27.1598299070      -47.3454704199  TIP3      6308            0.0000000000
     43839      6508  TIP3      H1              8.3870462355      -26.3362688902      -46.9545920050  TIP3      6308            0.0000000000
     43840      6508  TIP3      H2              8.0052794646      -27.7717647550      -47.1179391489  TIP3      6308            0.0000000000
     43841      6509  TIP3      OH2            -1.2829648980      -30.8471280508      -35.2844205320  TIP3      6309            0.0000000000
     43842      6509  TIP3      H1             -1.1145273990      -31.2921236812      -34.4306091854  TIP3      6309            0.0000000000
     43843      6509  TIP3      H2             -1.9042145870      -31.4567746590      -35.7234896447  TIP3      6309            0.0000000000
     43844      6510  TIP3      OH2             5.7237856494      -31.2857422880      -33.1072698001  TIP3      6310            0.0000000000
     43845      6510  TIP3      H1              5.4086125827      -31.5949421286      -33.9680614015  TIP3      6310            0.0000000000
     43846      6510  TIP3      H2              6.6394037408      -31.6325337222      -33.1011333979  TIP3      6310            0.0000000000
     43847      6511  TIP3      OH2            10.3582230579      -25.4487706987      -35.4330777496  TIP3      6311            0.0000000000
     43848      6511  TIP3      H1              9.4068022739      -25.6071769966      -35.5629351033  TIP3      6311            0.0000000000
     43849      6511  TIP3      H2             10.4307268756      -25.2477665475      -34.4894163411  TIP3      6311            0.0000000000
     43850      6512  TIP3      OH2            16.1188097829      -33.7705572595      -46.7374684717  TIP3      6312            0.0000000000
     43851      6512  TIP3      H1             15.5309455371      -34.0377031277      -47.4774450168  TIP3      6312            0.0000000000
     43852      6512  TIP3      H2             16.1751180459      -32.8233935061      -46.9912861314  TIP3      6312            0.0000000000
     43853      6513  TIP3      OH2            16.0929601451      -27.8872112872      -33.9649420939  TIP3      6313            0.0000000000
     43854      6513  TIP3      H1             15.1890075238      -27.6900206915      -34.3223424465  TIP3      6313            0.0000000000
     43855      6513  TIP3      H2             16.6097558561      -27.9755880119      -34.7871274087  TIP3      6313            0.0000000000
     43856      6514  TIP3      OH2            14.3866067123      -24.9660727438      -46.3632837933  TIP3      6314            0.0000000000
     43857      6514  TIP3      H1             13.9934530675      -25.7895795917      -46.0596763624  TIP3      6314            0.0000000000
     43858      6514  TIP3      H2             14.6654249209      -25.1688565534      -47.2759266223  TIP3      6314            0.0000000000
     43859      6515  TIP3      OH2            11.5494123113      -30.0783026994      -39.3339807672  TIP3      6315            0.0000000000
     43860      6515  TIP3      H1             10.6287152519      -30.3560448593      -39.3474534260  TIP3      6315            0.0000000000
     43861      6515  TIP3      H2             12.0178953641      -30.8680666129      -39.6531397949  TIP3      6315            0.0000000000
     43862      6516  TIP3      OH2             4.0986423651      -25.7972301757      -43.1553403152  TIP3      6316            0.0000000000
     43863      6516  TIP3      H1              4.5981922761      -24.9902539359      -43.3640292757  TIP3      6316            0.0000000000
     43864      6516  TIP3      H2              3.2220912318      -25.5638537086      -43.4866127548  TIP3      6316            0.0000000000
     43865      6517  TIP3      OH2            -0.0737766286      -31.0004084615      -48.5626912404  TIP3      6317            0.0000000000
     43866      6517  TIP3      H1              0.4638362308      -30.2945882600      -48.1652815311  TIP3      6317            0.0000000000
     43867      6517  TIP3      H2             -0.9803147186      -30.6830340301      -48.3438900283  TIP3      6317            0.0000000000
     43868      6518  TIP3      OH2             5.5166312564      -28.1312937694      -43.6367681765  TIP3      6318            0.0000000000
     43869      6518  TIP3      H1              5.1977712166      -27.2136762306      -43.5579543815  TIP3      6318            0.0000000000
     43870      6518  TIP3      H2              4.7973348213      -28.6251018979      -43.1948861662  TIP3      6318            0.0000000000
     43871      6519  TIP3      OH2             5.9623866016      -23.9421374063      -37.2372299201  TIP3      6319            0.0000000000
     43872      6519  TIP3      H1              6.4248747773      -23.1388902905      -37.5225413987  TIP3      6319            0.0000000000
     43873      6519  TIP3      H2              6.5729969585      -24.2732273538      -36.5639305508  TIP3      6319            0.0000000000
     43874      6520  TIP3      OH2             4.1951861855      -23.1247707683      -44.1067116237  TIP3      6320            0.0000000000
     43875      6520  TIP3      H1              3.2306121636      -23.0003033012      -43.9501120898  TIP3      6320            0.0000000000
     43876      6520  TIP3      H2              4.5667763364      -22.3058639261      -43.7318340529  TIP3      6320            0.0000000000
     43877      6521  TIP3      OH2             9.5380954934      -27.9212000960      -37.5685891247  TIP3      6321            0.0000000000
     43878      6521  TIP3      H1              9.1294078997      -28.2062156434      -36.7331772587  TIP3      6321            0.0000000000
     43879      6521  TIP3      H2             10.1259517238      -28.6641019619      -37.8135930295  TIP3      6321            0.0000000000
     43880      6522  TIP3      OH2            11.7001724671      -26.9305267752      -48.4623317656  TIP3      6322            0.0000000000
     43881      6522  TIP3      H1             12.0845015605      -27.3821085244      -47.6836562218  TIP3      6322            0.0000000000
     43882      6522  TIP3      H2             10.7739153069      -27.0998335797      -48.2828174728  TIP3      6322            0.0000000000
     43883      6523  TIP3      OH2            12.3017754175      -23.3791180052      -35.1242343187  TIP3      6323            0.0000000000
     43884      6523  TIP3      H1             11.6051760175      -23.8514173822      -35.6215745122  TIP3      6323            0.0000000000
     43885      6523  TIP3      H2             12.4991060710      -22.6776286146      -35.7789843525  TIP3      6323            0.0000000000
     43886      6524  TIP3      OH2            16.2975951700      -22.4717606655      -48.3066467087  TIP3      6324            0.0000000000
     43887      6524  TIP3      H1             17.0030893364      -21.8188610771      -48.4567327414  TIP3      6324            0.0000000000
     43888      6524  TIP3      H2             15.5773960359      -21.8886540850      -47.9689745739  TIP3      6324            0.0000000000
     43889      6525  TIP3      OH2             0.3527202881      -36.1366318311      -35.7479112130  TIP3      6325            0.0000000000
     43890      6525  TIP3      H1             -0.5460437292      -35.7656553439      -35.7470616485  TIP3      6325            0.0000000000
     43891      6525  TIP3      H2              0.2393023777      -36.9658512170      -35.2484022497  TIP3      6325            0.0000000000
     43892      6526  TIP3      OH2            12.6131279136      -28.2256465430      -46.2766170881  TIP3      6326            0.0000000000
     43893      6526  TIP3      H1             12.3727416685      -29.0405372059      -45.7952700846  TIP3      6326            0.0000000000
     43894      6526  TIP3      H2             13.5649121669      -28.1940450944      -46.1066574381  TIP3      6326            0.0000000000
     43895      6527  TIP3      OH2            -0.0193661556      -24.3343116800      -37.3037075052  TIP3      6327            0.0000000000
     43896      6527  TIP3      H1              0.2863753566      -25.2526986700      -37.2992984638  TIP3      6327            0.0000000000
     43897      6527  TIP3      H2              0.2430093276      -24.0386949955      -36.4258876715  TIP3      6327            0.0000000000
     43898      6528  TIP3      OH2             4.7178562322      -26.2387540283      -47.5849412008  TIP3      6328            0.0000000000
     43899      6528  TIP3      H1              4.9845949414      -26.7923397520      -46.8426828491  TIP3      6328            0.0000000000
     43900      6528  TIP3      H2              4.7967081137      -25.3339570846      -47.2355073879  TIP3      6328            0.0000000000
     43901      6529  TIP3      OH2             1.2415059800      -29.0351152988      -47.1219743011  TIP3      6329            0.0000000000
     43902      6529  TIP3      H1              0.5528632396      -28.6324119594      -46.5593088931  TIP3      6329            0.0000000000
     43903      6529  TIP3      H2              1.7694478346      -28.2487801064      -47.3600204312  TIP3      6329            0.0000000000
     43904      6530  TIP3      OH2             9.1071589447      -36.3389948766      -36.7703341934  TIP3      6330            0.0000000000
     43905      6530  TIP3      H1              9.8262619002      -36.3085633084      -36.1241476039  TIP3      6330            0.0000000000
     43906      6530  TIP3      H2              8.6949629320      -37.2131120574      -36.5772405872  TIP3      6330            0.0000000000
     43907      6531  TIP3      OH2             9.9278084535      -36.8464872511      -45.6392950137  TIP3      6331            0.0000000000
     43908      6531  TIP3      H1             10.0574046606      -36.3009559685      -46.4502483595  TIP3      6331            0.0000000000
     43909      6531  TIP3      H2             10.4210507348      -36.2948838539      -45.0147719617  TIP3      6331            0.0000000000
     43910      6532  TIP3      OH2             7.5498379178      -24.6129548590      -46.8888429868  TIP3      6332            0.0000000000
     43911      6532  TIP3      H1              6.7291023041      -24.1169722872      -46.7751604658  TIP3      6332            0.0000000000
     43912      6532  TIP3      H2              8.0561832128      -24.0384475178      -47.4699450357  TIP3      6332            0.0000000000
     43913      6533  TIP3      OH2             7.0865891901      -35.0401397539      -44.8658647747  TIP3      6333            0.0000000000
     43914      6533  TIP3      H1              7.8538886752      -34.4378703876      -44.8462696433  TIP3      6333            0.0000000000
     43915      6533  TIP3      H2              6.8188708264      -35.1223593542      -43.9318404196  TIP3      6333            0.0000000000
     43916      6534  TIP3      OH2             7.6358459930      -33.9915695547      -35.6659751798  TIP3      6334            0.0000000000
     43917      6534  TIP3      H1              7.7376458768      -33.4368359449      -34.8699094122  TIP3      6334            0.0000000000
     43918      6534  TIP3      H2              8.2762734235      -34.7139289438      -35.5860350813  TIP3      6334            0.0000000000
     43919      6535  TIP3      OH2             7.8925092832      -37.9739053126      -43.9289288587  TIP3      6335            0.0000000000
     43920      6535  TIP3      H1              7.5745158756      -37.2887204185      -43.3170965471  TIP3      6335            0.0000000000
     43921      6535  TIP3      H2              8.5787664524      -37.4628253130      -44.4215495326  TIP3      6335            0.0000000000
     43922      6536  TIP3      OH2             4.8265477216      -23.5247600334      -46.8381781604  TIP3      6336            0.0000000000
     43923      6536  TIP3      H1              5.1340004400      -22.7270622532      -47.3069342558  TIP3      6336            0.0000000000
     43924      6536  TIP3      H2              4.6636956060      -23.2197578086      -45.9209572547  TIP3      6336            0.0000000000
     43925      6537  TIP3      OH2             3.5694849515      -36.7669440962      -47.2210473524  TIP3      6337            0.0000000000
     43926      6537  TIP3      H1              3.5557228698      -35.8806941344      -46.8337212175  TIP3      6337            0.0000000000
     43927      6537  TIP3      H2              4.4674226268      -37.0755810208      -47.0052557282  TIP3      6337            0.0000000000
     43928      6538  TIP3      OH2            13.8151907028      -36.1060118230      -34.8446401625  TIP3      6338            0.0000000000
     43929      6538  TIP3      H1             12.8749871988      -35.8109861741      -34.9577039531  TIP3      6338            0.0000000000
     43930      6538  TIP3      H2             14.0937693301      -36.1118295417      -35.7751823852  TIP3      6338            0.0000000000
     43931      6539  TIP3      OH2            12.4378942069      -32.3541255990      -40.8527920588  TIP3      6339            0.0000000000
     43932      6539  TIP3      H1             11.5899238480      -32.7781231668      -41.0827706847  TIP3      6339            0.0000000000
     43933      6539  TIP3      H2             12.8964104510      -33.0201211753      -40.2916095014  TIP3      6339            0.0000000000
     43934      6540  TIP3      OH2             1.8589946399      -26.4465264298      -48.1300952579  TIP3      6340            0.0000000000
     43935      6540  TIP3      H1              2.5086673479      -25.7763772078      -47.9007327281  TIP3      6340            0.0000000000
     43936      6540  TIP3      H2              2.2752712923      -26.8429438887      -48.9209157644  TIP3      6340            0.0000000000
     43937      6541  TIP3      OH2             0.1688818103      -33.7271094904      -48.9375575202  TIP3      6341            0.0000000000
     43938      6541  TIP3      H1              0.1690055341      -32.7579402643      -48.8662215444  TIP3      6341            0.0000000000
     43939      6541  TIP3      H2             -0.6505918887      -33.9360364985      -49.4168919116  TIP3      6341            0.0000000000
     43940      6542  TIP3      OH2            13.4757232955      -23.0850433078      -39.1512395598  TIP3      6342            0.0000000000
     43941      6542  TIP3      H1             13.3952182030      -22.3981470805      -39.8458131632  TIP3      6342            0.0000000000
     43942      6542  TIP3      H2             14.4357574838      -23.0256082451      -38.9633878573  TIP3      6342            0.0000000000
     43943      6543  TIP3      OH2             0.9897650295      -38.8140257692      -40.3683462945  TIP3      6343            0.0000000000
     43944      6543  TIP3      H1              0.8074258440      -38.8584785932      -41.3376855646  TIP3      6343            0.0000000000
     43945      6543  TIP3      H2              0.7313284789      -39.7070285116      -40.1640755860  TIP3      6343            0.0000000000
     43946      6544  TIP3      OH2            -0.0769319294      -25.0383672271      -44.1911215236  TIP3      6344            0.0000000000
     43947      6544  TIP3      H1             -0.9312931859      -24.5885238987      -44.2404383632  TIP3      6344            0.0000000000
     43948      6544  TIP3      H2              0.4134628072      -24.5845096674      -44.8812306251  TIP3      6344            0.0000000000
     43949      6545  TIP3      OH2            -0.8720159003      -22.3796759934      -32.9166213577  TIP3      6345            0.0000000000
     43950      6545  TIP3      H1             -0.2629972088      -22.5818049431      -32.1773249058  TIP3      6345            0.0000000000
     43951      6545  TIP3      H2             -1.2677060800      -23.2510375800      -33.0967118092  TIP3      6345            0.0000000000
     43952      6546  TIP3      OH2             3.8157692275      -23.4654427535      -31.3081641717  TIP3      6346            0.0000000000
     43953      6546  TIP3      H1              4.5724491580      -23.9601217703      -30.9737641788  TIP3      6346            0.0000000000
     43954      6546  TIP3      H2              3.7896724759      -23.7428325505      -32.2441272309  TIP3      6346            0.0000000000
     43955      6547  TIP3      OH2             7.8634146228      -24.0248983027      -50.0064615015  TIP3      6347            0.0000000000
     43956      6547  TIP3      H1              7.2498253100      -24.6607217711      -49.6194187410  TIP3      6347            0.0000000000
     43957      6547  TIP3      H2              8.6710148470      -24.5267709211      -50.0858927668  TIP3      6347            0.0000000000
     43958      6548  TIP3      OH2            10.3892051345      -25.1872622323      -32.6201102836  TIP3      6348            0.0000000000
     43959      6548  TIP3      H1              9.9695448055      -25.9070613475      -32.1051566018  TIP3      6348            0.0000000000
     43960      6548  TIP3      H2             11.0808099876      -24.9106816891      -31.9744189243  TIP3      6348            0.0000000000
     43961      6549  TIP3      OH2            12.0905280726      -24.3416026172      -49.3252264237  TIP3      6349            0.0000000000
     43962      6549  TIP3      H1             12.6880859293      -25.0064587405      -48.9438995004  TIP3      6349            0.0000000000
     43963      6549  TIP3      H2             12.7435853954      -23.8674749303      -49.9217050144  TIP3      6349            0.0000000000
     43964      6550  TIP3      OH2            -0.9580934521      -28.6105462586      -31.9182643281  TIP3      6350            0.0000000000
     43965      6550  TIP3      H1             -0.7911243553      -29.5223179965      -32.2187115360  TIP3      6350            0.0000000000
     43966      6550  TIP3      H2             -1.6967984222      -28.3527774524      -32.4939616012  TIP3      6350            0.0000000000
     43967      6551  TIP3      OH2             3.4805620244      -28.3189737917      -49.8059603130  TIP3      6351            0.0000000000
     43968      6551  TIP3      H1              3.5562224249      -29.0852001312      -49.2281703736  TIP3      6351            0.0000000000
     43969      6551  TIP3      H2              4.1553933463      -28.4227982102      -50.4841132307  TIP3      6351            0.0000000000
     43970      6552  TIP3      OH2             5.8180191398      -28.6092896707      -32.5665006176  TIP3      6352            0.0000000000
     43971      6552  TIP3      H1              5.3766010041      -28.3211451750      -33.3883041567  TIP3      6352            0.0000000000
     43972      6552  TIP3      H2              5.8256185552      -29.5943323930      -32.6341857212  TIP3      6352            0.0000000000
     43973      6553  TIP3      OH2            11.3525281118      -28.2666423082      -34.6966555107  TIP3      6353            0.0000000000
     43974      6553  TIP3      H1             12.2073029754      -28.2988128394      -35.1973412140  TIP3      6353            0.0000000000
     43975      6553  TIP3      H2             10.7206546122      -28.2123045045      -35.4144546188  TIP3      6353            0.0000000000
     43976      6554  TIP3      OH2            -0.0346915216      -31.3871077766      -32.5407888320  TIP3      6354            0.0000000000
     43977      6554  TIP3      H1              0.3842914877      -32.2493538499      -32.6287583551  TIP3      6354            0.0000000000
     43978      6554  TIP3      H2             -0.2673975749      -31.3786843613      -31.5979816908  TIP3      6354            0.0000000000
     43979      6555  TIP3      OH2             4.5740994746      -30.2631017190      -47.4910398763  TIP3      6355            0.0000000000
     43980      6555  TIP3      H1              4.0999708635      -30.7636937222      -46.8041491083  TIP3      6355            0.0000000000
     43981      6555  TIP3      H2              4.9211294538      -30.9820377136      -48.0648617145  TIP3      6355            0.0000000000
     43982      6556  TIP3      OH2             3.8694539585      -32.4442382359      -35.1871773890  TIP3      6356            0.0000000000
     43983      6556  TIP3      H1              3.2651891729      -31.7279345807      -34.9299129686  TIP3      6356            0.0000000000
     43984      6556  TIP3      H2              4.2614030771      -32.0749440485      -35.9944973536  TIP3      6356            0.0000000000
     43985      6557  TIP3      OH2             5.7798720958      -32.0356153474      -49.1664142437  TIP3      6357            0.0000000000
     43986      6557  TIP3      H1              5.5320647957      -32.1686471778      -50.0907920728  TIP3      6357            0.0000000000
     43987      6557  TIP3      H2              6.7553404859      -31.9550703103      -49.1291786485  TIP3      6357            0.0000000000
     43988      6558  TIP3      OH2             8.9444009403      -29.8411575915      -31.8359833047  TIP3      6358            0.0000000000
     43989      6558  TIP3      H1              9.9007420201      -29.9094333525      -31.9769831250  TIP3      6358            0.0000000000
     43990      6558  TIP3      H2              8.7530699203      -30.6267096026      -31.2875589937  TIP3      6358            0.0000000000
     43991      6559  TIP3      OH2            14.7629329610      -29.9662814717       50.2239222257  TIP3      6359            0.0000000000
     43992      6559  TIP3      H1             14.8709895994      -30.2195281254       49.3077666439  TIP3      6359            0.0000000000
     43993      6559  TIP3      H2             15.0007838759      -29.0104591578       50.1273863971  TIP3      6359            0.0000000000
     43994      6560  TIP3      OH2             4.2849949140      -35.0668972548      -34.1277716563  TIP3      6360            0.0000000000
     43995      6560  TIP3      H1              4.4078759323      -35.7594944669      -34.7982283878  TIP3      6360            0.0000000000
     43996      6560  TIP3      H2              4.2334782634      -34.2563548221      -34.6761776404  TIP3      6360            0.0000000000
     43997      6561  TIP3      OH2             4.6684333818      -36.6138665700      -36.5682600998  TIP3      6361            0.0000000000
     43998      6561  TIP3      H1              5.1947573033      -36.2147857259      -37.3017762682  TIP3      6361            0.0000000000
     43999      6561  TIP3      H2              3.7864182547      -36.7651349344      -36.9850571233  TIP3      6361            0.0000000000
     44000      6562  TIP3      OH2             6.2463745535      -31.1665611711      -36.3134448059  TIP3      6362            0.0000000000
     44001      6562  TIP3      H1              6.9941153875      -31.3497833214      -36.8965127318  TIP3      6362            0.0000000000
     44002      6562  TIP3      H2              5.8537081049      -30.3556869020      -36.6753827376  TIP3      6362            0.0000000000
     44003      6563  TIP3      OH2            10.6003190765      -33.4477695954      -31.3483491669  TIP3      6363            0.0000000000
     44004      6563  TIP3      H1             10.8537366251      -34.3725740337      -31.4745112485  TIP3      6363            0.0000000000
     44005      6563  TIP3      H2             11.4597313165      -32.9901243130      -31.3796767915  TIP3      6363            0.0000000000
     44006      6564  TIP3      OH2            11.9370214817      -30.5964703004      -33.0925755018  TIP3      6364            0.0000000000
     44007      6564  TIP3      H1             11.7181373189      -29.9921464953      -33.8335499896  TIP3      6364            0.0000000000
     44008      6564  TIP3      H2             12.8685822992      -30.7134268895      -33.3862213520  TIP3      6364            0.0000000000
     44009      6565  TIP3      OH2             2.7334800285      -33.7998240025      -32.2138733669  TIP3      6365            0.0000000000
     44010      6565  TIP3      H1              1.9643446654      -34.3811870816      -32.3786611208  TIP3      6365            0.0000000000
     44011      6565  TIP3      H2              3.3932369573      -34.1605004135      -32.8319752729  TIP3      6365            0.0000000000
     44012      6566  TIP3      OH2             5.5342823181      -39.0614277048      -36.1317240585  TIP3      6366            0.0000000000
     44013      6566  TIP3      H1              5.3051378508      -38.1116647317      -36.2324191439  TIP3      6366            0.0000000000
     44014      6566  TIP3      H2              4.7542603192      -39.4794078295      -36.5168154618  TIP3      6366            0.0000000000
     44015      6567  TIP3      OH2             6.7339956760      -34.9309371133      -32.5561129834  TIP3      6367            0.0000000000
     44016      6567  TIP3      H1              6.4195323602      -35.1716871155      -31.6654699082  TIP3      6367            0.0000000000
     44017      6567  TIP3      H2              5.9456288644      -35.1298294353      -33.0900957186  TIP3      6367            0.0000000000
     44018      6568  TIP3      OH2             9.4509961762      -35.7761968170      -33.4401146151  TIP3      6368            0.0000000000
     44019      6568  TIP3      H1              8.4825927379      -35.7255727452      -33.3592173250  TIP3      6368            0.0000000000
     44020      6568  TIP3      H2              9.7008384249      -36.4284594818      -32.7618296254  TIP3      6368            0.0000000000
     44021      6569  TIP3      OH2            11.0175423730      -36.9550700376      -31.5218444074  TIP3      6369            0.0000000000
     44022      6569  TIP3      H1             11.0243932179      -37.9432338495      -31.5775079391  TIP3      6369            0.0000000000
     44023      6569  TIP3      H2             10.7626725766      -36.8039215522      -30.5995215170  TIP3      6369            0.0000000000
     44024      6570  TIP3      OH2             0.8143393028      -35.9014119324      -32.4386857724  TIP3      6370            0.0000000000
     44025      6570  TIP3      H1              1.0371591418      -36.6456161046      -33.0303455474  TIP3      6370            0.0000000000
     44026      6570  TIP3      H2              0.7246692147      -36.3538447896      -31.5798019190  TIP3      6370            0.0000000000
     44027      6571  TIP3      OH2             5.6562083327       39.8571443930      -33.4681135418  TIP3      6371            0.0000000000
     44028      6571  TIP3      H1              6.3886486819       39.2321618304      -33.4964781455  TIP3      6371            0.0000000000
     44029      6571  TIP3      H2              5.5829101673       40.1225701321      -34.4076420201  TIP3      6371            0.0000000000
     44030      6572  TIP3      OH2             6.1079986872      -38.1539427031      -31.4317304280  TIP3      6372            0.0000000000
     44031      6572  TIP3      H1              5.8703942297      -38.7518302549      -32.1693168236  TIP3      6372            0.0000000000
     44032      6572  TIP3      H2              5.4427878342      -37.4514397313      -31.4770227099  TIP3      6372            0.0000000000
     44033      6573  TIP3      OH2             5.4740223536      -21.2895670267      -48.2290310475  TIP3      6373            0.0000000000
     44034      6573  TIP3      H1              6.4544598439      -21.2577102592      -48.1017896648  TIP3      6373            0.0000000000
     44035      6573  TIP3      H2              5.4130223068      -20.6530948159      -48.9480990752  TIP3      6373            0.0000000000
     44036      6574  TIP3      OH2            -0.8497988270      -26.7611611695      -48.6347080428  TIP3      6374            0.0000000000
     44037      6574  TIP3      H1              0.1142830513      -26.6420956601      -48.4966892649  TIP3      6374            0.0000000000
     44038      6574  TIP3      H2             -0.8561096726      -27.3567679415      -49.3977476534  TIP3      6374            0.0000000000
     44039      6575  TIP3      OH2            -2.1587212992      -21.3687186505      -43.7602587617  TIP3      6375            0.0000000000
     44040      6575  TIP3      H1             -2.8798132603      -21.8522938068      -44.2204850949  TIP3      6375            0.0000000000
     44041      6575  TIP3      H2             -1.8869243889      -22.0166987895      -43.0848202944  TIP3      6375            0.0000000000
     44042      6576  TIP3      OH2            -1.3328648172      -23.2266067154      -41.8796100663  TIP3      6376            0.0000000000
     44043      6576  TIP3      H1             -1.6886436362      -24.1054038523      -41.6831777498  TIP3      6376            0.0000000000
     44044      6576  TIP3      H2             -1.1091124206      -22.8981199616      -40.9938462504  TIP3      6376            0.0000000000
     44045      6577  TIP3      OH2            16.2006567465      -22.4323273037      -38.9528285793  TIP3      6377            0.0000000000
     44046      6577  TIP3      H1             16.2328200745      -22.2711760634      -37.9946341128  TIP3      6377            0.0000000000
     44047      6577  TIP3      H2             16.9050504080      -21.8507487396      -39.2579376398  TIP3      6377            0.0000000000
     44048      6578  TIP3      OH2            15.7684399951      -22.8302127858      -35.9967006619  TIP3      6378            0.0000000000
     44049      6578  TIP3      H1             15.3036903153      -23.6010630350      -36.3884325731  TIP3      6378            0.0000000000
     44050      6578  TIP3      H2             16.2614116844      -23.2842791185      -35.2942009433  TIP3      6378            0.0000000000
     44051      6579  TIP3      OH2            14.2165886572      -27.0999752812      -31.3362501598  TIP3      6379            0.0000000000
     44052      6579  TIP3      H1             13.3229551500      -27.1509841295      -30.9553778317  TIP3      6379            0.0000000000
     44053      6579  TIP3      H2             14.6026883104      -26.3125838119      -30.9075100823  TIP3      6379            0.0000000000
     44054      6580  TIP3      OH2            15.5324677058      -28.7778998901      -45.8917971371  TIP3      6380            0.0000000000
     44055      6580  TIP3      H1             16.4040565542      -28.3933258568      -45.7117771569  TIP3      6380            0.0000000000
     44056      6580  TIP3      H2             15.5233613027      -29.5044459677      -45.2321322847  TIP3      6380            0.0000000000
     44057      6581  TIP3      OH2            15.8882829903      -30.6961345338      -44.0052908833  TIP3      6381            0.0000000000
     44058      6581  TIP3      H1             15.1415912099      -31.2121677591      -43.6254278720  TIP3      6381            0.0000000000
     44059      6581  TIP3      H2             16.4843761659      -30.5767081323      -43.2391287830  TIP3      6381            0.0000000000
     44060      6582  TIP3      OH2            15.7176959798      -27.9236532925      -39.0688051782  TIP3      6382            0.0000000000
     44061      6582  TIP3      H1             16.4976509942      -28.3768177704      -39.4242621240  TIP3      6382            0.0000000000
     44062      6582  TIP3      H2             15.8515879290      -26.9851079153      -39.2238993133  TIP3      6382            0.0000000000
     44063      6583  TIP3      OH2            14.2130286660      -25.1152055710      -36.7611534520  TIP3      6383            0.0000000000
     44064      6583  TIP3      H1             13.5166986286      -24.7675029001      -36.1837207279  TIP3      6383            0.0000000000
     44065      6583  TIP3      H2             13.6738785164      -25.5186370842      -37.4773942781  TIP3      6383            0.0000000000
     44066      6584  TIP3      OH2            16.2222594176      -30.8480800032      -47.6338377272  TIP3      6384            0.0000000000
     44067      6584  TIP3      H1             15.6237425935      -30.5425980121      -48.3511558995  TIP3      6384            0.0000000000
     44068      6584  TIP3      H2             16.0913823176      -30.1524459336      -46.9594674565  TIP3      6384            0.0000000000
     44069      6585  TIP3      OH2            14.5249638591      -33.5793945783      -48.7714912184  TIP3      6385            0.0000000000
     44070      6585  TIP3      H1             14.6873962416      -32.9658954413      -49.5130872387  TIP3      6385            0.0000000000
     44071      6585  TIP3      H2             14.5658537988      -34.4311442269      -49.2467469135  TIP3      6385            0.0000000000
     44072      6586  TIP3      OH2            13.7175303744      -32.2430448354      -43.4408162894  TIP3      6386            0.0000000000
     44073      6586  TIP3      H1             13.5680529659      -33.1960316188      -43.4858014256  TIP3      6386            0.0000000000
     44074      6586  TIP3      H2             13.3922028009      -32.0297283510      -42.5440984555  TIP3      6386            0.0000000000
     44075      6587  TIP3      OH2            -1.2779826162      -30.1497341802      -39.3877904701  TIP3      6387            0.0000000000
     44076      6587  TIP3      H1             -1.1018645942      -30.2335490332      -40.3509773625  TIP3      6387            0.0000000000
     44077      6587  TIP3      H2             -0.3847727666      -30.3302591119      -39.0357655530  TIP3      6387            0.0000000000
     44078      6588  TIP3      OH2            14.6070933232      -30.2547801789      -33.5947860177  TIP3      6388            0.0000000000
     44079      6588  TIP3      H1             15.1913368460      -31.0350072830      -33.6446976695  TIP3      6388            0.0000000000
     44080      6588  TIP3      H2             15.2010256035      -29.5052873865      -33.7776537124  TIP3      6388            0.0000000000
     44081      6589  TIP3      OH2            16.0967116471      -32.4082059453      -33.1162583780  TIP3      6389            0.0000000000
     44082      6589  TIP3      H1             15.1997527425      -32.7750521785      -33.2713357649  TIP3      6389            0.0000000000
     44083      6589  TIP3      H2             16.6515717017      -33.2010485031      -33.2075809890  TIP3      6389            0.0000000000
     44084      6590  TIP3      OH2            13.8093569332      -36.2439286454      -49.8825949592  TIP3      6390            0.0000000000
     44085      6590  TIP3      H1             14.4062118360      -36.7335932119      -49.2879662645  TIP3      6390            0.0000000000
     44086      6590  TIP3      H2             12.9450177028      -36.6707615623      -49.7798480455  TIP3      6390            0.0000000000
     44087      6591  TIP3      OH2            13.3652468517      -34.6601632299      -45.0063970760  TIP3      6391            0.0000000000
     44088      6591  TIP3      H1             13.6790102339      -35.5791935657      -44.8547104871  TIP3      6391            0.0000000000
     44089      6591  TIP3      H2             14.1647219100      -34.2536953339      -45.3736976231  TIP3      6391            0.0000000000
     44090      6592  TIP3      OH2            14.0237647071      -34.1158086724      -39.5593395702  TIP3      6392            0.0000000000
     44091      6592  TIP3      H1             14.9809205740      -33.8823537344      -39.5610904688  TIP3      6392            0.0000000000
     44092      6592  TIP3      H2             13.8258547946      -33.9766400682      -38.6183012913  TIP3      6392            0.0000000000
     44093      6593  TIP3      OH2            14.0787593084      -33.3662216952      -36.7678142849  TIP3      6393            0.0000000000
     44094      6593  TIP3      H1             13.2043142589      -33.0696939676      -36.4595590023  TIP3      6393            0.0000000000
     44095      6593  TIP3      H2             14.5009453129      -32.4944760719      -36.9774464626  TIP3      6393            0.0000000000
     44096      6594  TIP3      OH2            -1.6436659946      -34.8617344514      -33.2375013252  TIP3      6394            0.0000000000
     44097      6594  TIP3      H1             -0.7104142149      -35.0969724700      -33.0433961230  TIP3      6394            0.0000000000
     44098      6594  TIP3      H2             -2.1100634131      -35.6820196016      -32.9792428064  TIP3      6394            0.0000000000
     44099      6595  TIP3      OH2            16.5784459376      -39.2482474542      -31.3518783982  TIP3      6395            0.0000000000
     44100      6595  TIP3      H1             16.6256839958      -39.9981099680      -31.9866402684  TIP3      6395            0.0000000000
     44101      6595  TIP3      H2             16.4486189008      -38.4914177625      -31.9617388589  TIP3      6395            0.0000000000
     44102      6596  TIP3      OH2            14.0325944917      -37.3478959502      -44.9395013961  TIP3      6396            0.0000000000
     44103      6596  TIP3      H1             14.2513726872      -37.8055121436      -44.0994581533  TIP3      6396            0.0000000000
     44104      6596  TIP3      H2             13.4546340154      -38.0063879653      -45.3917523122  TIP3      6396            0.0000000000
     44105      6597  TIP3      OH2            -0.4723405356      -36.5539864426      -40.3960565350  TIP3      6397            0.0000000000
     44106      6597  TIP3      H1             -0.0106941471      -37.3634512945      -40.1010451666  TIP3      6397            0.0000000000
     44107      6597  TIP3      H2              0.0921232107      -35.8616474143      -40.0248753831  TIP3      6397            0.0000000000
     44108      6598  TIP3      OH2            -2.1789843529      -33.5608090055      -39.3499649407  TIP3      6398            0.0000000000
     44109      6598  TIP3      H1             -1.6139047439      -33.8098792386      -40.1096851507  TIP3      6398            0.0000000000
     44110      6598  TIP3      H2             -1.7110440491      -32.7566583270      -39.0809237102  TIP3      6398            0.0000000000
     44111      6599  TIP3      OH2            15.8976451340      -37.2964004989      -33.0797667468  TIP3      6399            0.0000000000
     44112      6599  TIP3      H1             14.9736460279      -36.9742171370      -33.1014645339  TIP3      6399            0.0000000000
     44113      6599  TIP3      H2             15.8835633377      -37.7959941206      -33.9036509846  TIP3      6399            0.0000000000
     44114      6600  TIP3      OH2            15.8950234555      -37.3384812205      -48.3953807009  TIP3      6400            0.0000000000
     44115      6600  TIP3      H1             16.2945076878      -38.0322468469      -48.9357562766  TIP3      6400            0.0000000000
     44116      6600  TIP3      H2             16.5803956601      -36.6565299057      -48.4026630800  TIP3      6400            0.0000000000
     44117      6601  TIP3      OH2            -1.8025519752      -37.3072244196      -45.2379809684  TIP3      6401            0.0000000000
     44118      6601  TIP3      H1             -2.7433251304      -37.1148425325      -45.4059349776  TIP3      6401            0.0000000000
     44119      6601  TIP3      H2             -1.3844910122      -36.8509042679      -45.9959298473  TIP3      6401            0.0000000000
     44120      6602  TIP3      OH2            12.9291956363      -22.3523022704      -43.3454014751  TIP3      6402            0.0000000000
     44121      6602  TIP3      H1             13.6085243569      -22.6602011579      -43.9664416314  TIP3      6402            0.0000000000
     44122      6602  TIP3      H2             13.4393445475      -21.8589536441      -42.6830849205  TIP3      6402            0.0000000000
     44123      6603  TIP3      OH2            -1.8469177604      -38.6371497372      -37.0782094228  TIP3      6403            0.0000000000
     44124      6603  TIP3      H1             -2.4390290767      -38.7237215040      -36.3013606267  TIP3      6403            0.0000000000
     44125      6603  TIP3      H2             -2.3046351252      -37.9321589780      -37.5761066337  TIP3      6403            0.0000000000
     44126      6604  TIP3      OH2             0.3770473711      -25.4564424083      -32.8194799983  TIP3      6404            0.0000000000
     44127      6604  TIP3      H1             -0.4601283836      -25.2287795891      -33.2581217992  TIP3      6404            0.0000000000
     44128      6604  TIP3      H2              0.1071940014      -25.5243026746      -31.9007809619  TIP3      6404            0.0000000000
     44129      6605  TIP3      OH2             3.2737111441      -24.4385148554      -36.5392423340  TIP3      6405            0.0000000000
     44130      6605  TIP3      H1              2.9461010460      -23.5708780268      -36.8124114638  TIP3      6405            0.0000000000
     44131      6605  TIP3      H2              4.1993934817      -24.3567828762      -36.8464247876  TIP3      6405            0.0000000000
     44132      6606  TIP3      OH2             7.6124595125      -23.0634211735      -33.6557949533  TIP3      6406            0.0000000000
     44133      6606  TIP3      H1              7.7227448360      -23.3431213409      -32.7173975124  TIP3      6406            0.0000000000
     44134      6606  TIP3      H2              8.4938753372      -22.6845343085      -33.8803427605  TIP3      6406            0.0000000000
     44135      6607  TIP3      OH2             9.8730940814      -21.7792425165      -34.3042511927  TIP3      6407            0.0000000000
     44136      6607  TIP3      H1             10.6352399853      -22.3077605670      -34.5769685488  TIP3      6407            0.0000000000
     44137      6607  TIP3      H2             10.2560248530      -21.2944004870      -33.5391833344  TIP3      6407            0.0000000000
     44138      6608  TIP3      OH2            15.0981512127      -38.9364956941      -35.4088322097  TIP3      6408            0.0000000000
     44139      6608  TIP3      H1             14.1576388689      -38.7129994430      -35.5778436844  TIP3      6408            0.0000000000
     44140      6608  TIP3      H2             15.1893306286      -39.8586729507      -35.6373339186  TIP3      6408            0.0000000000
     44141      6609  TIP3      OH2             0.6986377093      -21.2064084516      -36.5491538909  TIP3      6409            0.0000000000
     44142      6609  TIP3      H1             -0.0333445401      -20.7036525431      -36.9430384240  TIP3      6409            0.0000000000
     44143      6609  TIP3      H2              0.3894530907      -21.3948141912      -35.6512355358  TIP3      6409            0.0000000000
     44144      6610  TIP3      OH2             3.1710221251      -21.6358512652      -37.4692615816  TIP3      6410            0.0000000000
     44145      6610  TIP3      H1              2.2779534321      -21.4813165148      -37.0787319763  TIP3      6410            0.0000000000
     44146      6610  TIP3      H2              3.1172417135      -21.0431932166      -38.2434882831  TIP3      6410            0.0000000000
     44147      6611  TIP3      OH2             7.8718843259      -21.7177855494      -38.2968933000  TIP3      6411            0.0000000000
     44148      6611  TIP3      H1              7.4106514803      -21.1602177591      -38.9499954890  TIP3      6411            0.0000000000
     44149      6611  TIP3      H2              8.0044333736      -21.0759921385      -37.5673403354  TIP3      6411            0.0000000000
     44150      6612  TIP3      OH2            10.1464450421      -22.9176656750      -37.2583686451  TIP3      6412            0.0000000000
     44151      6612  TIP3      H1              9.3097476549      -22.6210281957      -37.6543138469  TIP3      6412            0.0000000000
     44152      6612  TIP3      H2             10.6509083443      -22.0938323967      -37.3622700932  TIP3      6412            0.0000000000
     44153      6613  TIP3      OH2            12.7506264376      -21.3425329858      -37.0535396106  TIP3      6413            0.0000000000
     44154      6613  TIP3      H1             12.6828425794      -20.3852107063      -37.2754657504  TIP3      6413            0.0000000000
     44155      6613  TIP3      H2             12.9639277959      -21.7061004559      -37.9361453420  TIP3      6413            0.0000000000
     44156      6614  TIP3      OH2             0.1615538227      -22.5563282237      -39.6032993632  TIP3      6414            0.0000000000
     44157      6614  TIP3      H1              0.0774294543      -23.0155606098      -38.7413837809  TIP3      6414            0.0000000000
     44158      6614  TIP3      H2              0.9750696567      -22.9372929842      -39.9912110028  TIP3      6414            0.0000000000
     44159      6615  TIP3      OH2             2.2364456990      -23.8454131935      -40.9521641201  TIP3      6415            0.0000000000
     44160      6615  TIP3      H1              2.0710648618      -24.7782279260      -40.7158992088  TIP3      6415            0.0000000000
     44161      6615  TIP3      H2              3.0898112830      -23.6883589602      -40.4966047880  TIP3      6415            0.0000000000
     44162      6616  TIP3      OH2             4.8425468577      -23.3560486967      -40.0758960540  TIP3      6416            0.0000000000
     44163      6616  TIP3      H1              4.9834801886      -24.2789192377      -40.3495700054  TIP3      6416            0.0000000000
     44164      6616  TIP3      H2              4.8844905211      -23.4197383600      -39.1075214823  TIP3      6416            0.0000000000
     44165      6617  TIP3      OH2             8.2511913704      -37.6652997053      -40.9532970492  TIP3      6417            0.0000000000
     44166      6617  TIP3      H1              7.6466918891      -38.3398283771      -40.6076439861  TIP3      6417            0.0000000000
     44167      6617  TIP3      H2              8.8744105093      -38.2098339147      -41.4564418665  TIP3      6417            0.0000000000
     44168      6618  TIP3      OH2            13.4722421502      -38.8688883818      -40.5815590906  TIP3      6418            0.0000000000
     44169      6618  TIP3      H1             14.0855767628      -38.9076267571      -41.3633447967  TIP3      6418            0.0000000000
     44170      6618  TIP3      H2             12.6289156091      -39.1858879717      -40.9630551491  TIP3      6418            0.0000000000
     44171      6619  TIP3      OH2            15.0842161623      -38.4198940634      -42.6319296372  TIP3      6419            0.0000000000
     44172      6619  TIP3      H1             15.7717518355      -39.0293092260      -42.9713483000  TIP3      6419            0.0000000000
     44173      6619  TIP3      H2             15.5926426657      -37.5820517358      -42.5073892593  TIP3      6419            0.0000000000
     44174      6620  TIP3      OH2             0.5854064647      -39.1427844074      -43.0678327513  TIP3      6420            0.0000000000
     44175      6620  TIP3      H1             -0.1244253771      -39.3164256881      -43.7044853272  TIP3      6420            0.0000000000
     44176      6620  TIP3      H2              1.1162853637      -39.9531763820      -43.1626908196  TIP3      6420            0.0000000000
     44177      6621  TIP3      OH2            -0.5893125893      -39.3277228953      -47.3691962386  TIP3      6421            0.0000000000
     44178      6621  TIP3      H1             -0.0601289788      -38.7149746049      -47.9045318507  TIP3      6421            0.0000000000
     44179      6621  TIP3      H2             -1.1521872300      -38.7373522382      -46.8573341409  TIP3      6421            0.0000000000
     44180      6622  TIP3      OH2             5.0316472179      -38.7665668561      -43.4287001366  TIP3      6422            0.0000000000
     44181      6622  TIP3      H1              5.9955879859      -38.7068976797      -43.4900805219  TIP3      6422            0.0000000000
     44182      6622  TIP3      H2              5.0275891721      -39.2570012231      -42.6045278799  TIP3      6422            0.0000000000
     44183      6623  TIP3      OH2            10.6741338610      -39.0238719730      -41.4800530179  TIP3      6423            0.0000000000
     44184      6623  TIP3      H1             10.7488967983      -38.9382464033      -42.4481000947  TIP3      6423            0.0000000000
     44185      6623  TIP3      H2             10.5046370431      -39.9802370185      -41.4350769095  TIP3      6423            0.0000000000
     44186      6624  TIP3      OH2            12.1026928010      -39.0285730815      -45.9290112154  TIP3      6424            0.0000000000
     44187      6624  TIP3      H1             11.3322719967      -38.4801302937      -46.1473695385  TIP3      6424            0.0000000000
     44188      6624  TIP3      H2             11.7630625143      -39.9392897299      -45.8803729430  TIP3      6424            0.0000000000
     44189      6625  TIP3      OH2            -0.5761605585      -23.3511982739      -46.4593362076  TIP3      6425            0.0000000000
     44190      6625  TIP3      H1             -1.3505065131      -23.3953734511      -47.0467561673  TIP3      6425            0.0000000000
     44191      6625  TIP3      H2             -0.6800438166      -22.4423060868      -46.1381028290  TIP3      6425            0.0000000000
     44192      6626  TIP3      OH2             1.1531828275      -37.0435574958      -48.8649460737  TIP3      6426            0.0000000000
     44193      6626  TIP3      H1              1.5597254359      -37.8399534999      -49.2866709411  TIP3      6426            0.0000000000
     44194      6626  TIP3      H2              1.8520985303      -37.0099522469      -48.1945137414  TIP3      6426            0.0000000000
     44195      6627  TIP3      OH2             6.2661457741      -37.1299848084      -46.4191184737  TIP3      6427            0.0000000000
     44196      6627  TIP3      H1              6.5400099808      -37.7286012371      -45.7092216808  TIP3      6427            0.0000000000
     44197      6627  TIP3      H2              6.3317907643      -36.2822416572      -45.9318308597  TIP3      6427            0.0000000000
     44198      6628  TIP3      OH2             8.1921533976      -22.0812185034      -48.0186081364  TIP3      6428            0.0000000000
     44199      6628  TIP3      H1              9.1315437749      -21.8233755645      -48.1797323616  TIP3      6428            0.0000000000
     44200      6628  TIP3      H2              8.0346494789      -22.5741247780      -48.8426322199  TIP3      6428            0.0000000000
     44201      6629  TIP3      OH2            14.9429746718      -22.5640677758      -45.3117296813  TIP3      6429            0.0000000000
     44202      6629  TIP3      H1             14.7033284676      -23.3499243201      -45.8585628408  TIP3      6429            0.0000000000
     44203      6629  TIP3      H2             14.8186914533      -21.8226463622      -45.9329179918  TIP3      6429            0.0000000000
     44204      6630  TIP3      OH2             0.5015383429      -38.3274573431      -33.6551841646  TIP3      6430            0.0000000000
     44205      6630  TIP3      H1              0.1401259220      -39.1670542508      -33.2788952608  TIP3      6430            0.0000000000
     44206      6630  TIP3      H2              1.4117324218      -38.5022186119      -33.3484001692  TIP3      6430            0.0000000000
     44207      6631  TIP3      OH2             2.7196215960      -39.0511519357      -31.9083822595  TIP3      6431            0.0000000000
     44208      6631  TIP3      H1              3.4757207661      -39.4264703719      -32.3978849692  TIP3      6431            0.0000000000
     44209      6631  TIP3      H2              2.1646858128      -39.8454932971      -31.7441514066  TIP3      6431            0.0000000000
     44210      6632  TIP3      OH2             1.1985806677      -22.6149678071      -49.0165236207  TIP3      6432            0.0000000000
     44211      6632  TIP3      H1              0.8971687290      -22.2339226053      -48.1772809548  TIP3      6432            0.0000000000
     44212      6632  TIP3      H2              2.0025232329      -23.1489065967      -48.9664205537  TIP3      6432            0.0000000000
     44213      6633  TIP3      OH2            11.1278478880       40.3591091434      -31.8503400155  TIP3      6433            0.0000000000
     44214      6633  TIP3      H1             11.0014482616       39.6519893543      -31.1908543689  TIP3      6433            0.0000000000
     44215      6633  TIP3      H2             11.8940000989       39.9742673710      -32.3065251810  TIP3      6433            0.0000000000
     44216      6634  TIP3      OH2            14.1429594472      -23.8310118642      -33.2009205392  TIP3      6434            0.0000000000
     44217      6634  TIP3      H1             13.3583406291      -23.9365386670      -33.7760642611  TIP3      6434            0.0000000000
     44218      6634  TIP3      H2             14.0589469043      -22.8766214455      -32.9926204908  TIP3      6434            0.0000000000
     44219      6635  TIP3      OH2            28.6401565255      -29.9560441528      -43.2809920930  TIP3      6435            0.0000000000
     44220      6635  TIP3      H1             28.5848251327      -28.9774358521      -43.1899673434  TIP3      6435            0.0000000000
     44221      6635  TIP3      H2             27.8624478689      -30.1679136954      -43.8150493631  TIP3      6435            0.0000000000
     44222      6636  TIP3      OH2            27.5193937934      -30.7813748061      -39.7167315276  TIP3      6436            0.0000000000
     44223      6636  TIP3      H1             27.4236214958      -31.4008526570      -38.9958160508  TIP3      6436            0.0000000000
     44224      6636  TIP3      H2             27.0872472431      -31.1849881013      -40.4792757422  TIP3      6436            0.0000000000
     44225      6637  TIP3      OH2            19.8355076996      -31.0262521360      -38.1953137472  TIP3      6437            0.0000000000
     44226      6637  TIP3      H1             19.8966188703      -31.6986640883      -37.4856839992  TIP3      6437            0.0000000000
     44227      6637  TIP3      H2             20.5671000143      -30.4407810108      -37.9500394058  TIP3      6437            0.0000000000
     44228      6638  TIP3      OH2            31.2112399677      -27.7635285747      -41.4258412112  TIP3      6438            0.0000000000
     44229      6638  TIP3      H1             30.6489866472      -28.4117139235      -40.9848822915  TIP3      6438            0.0000000000
     44230      6638  TIP3      H2             31.1389450495      -27.0372211652      -40.7829081137  TIP3      6438            0.0000000000
     44231      6639  TIP3      OH2            20.7536110189      -26.5583742407      -39.7082431799  TIP3      6439            0.0000000000
     44232      6639  TIP3      H1             20.4248006973      -27.4358958243      -39.9832863529  TIP3      6439            0.0000000000
     44233      6639  TIP3      H2             21.6956996738      -26.7605898602      -39.6083421228  TIP3      6439            0.0000000000
     44234      6640  TIP3      OH2            17.3734947155      -33.0102713518      -44.1882956551  TIP3      6440            0.0000000000
     44235      6640  TIP3      H1             16.9429228989      -32.1370535380      -44.2467270594  TIP3      6440            0.0000000000
     44236      6640  TIP3      H2             16.8173429839      -33.5478161172      -44.7664727290  TIP3      6440            0.0000000000
     44237      6641  TIP3      OH2            18.1094744284      -30.7796280180      -42.0495509510  TIP3      6441            0.0000000000
     44238      6641  TIP3      H1             18.3637461733      -31.5984433415      -41.5850929551  TIP3      6441            0.0000000000
     44239      6641  TIP3      H2             18.8005112871      -30.6807214118      -42.7167427215  TIP3      6441            0.0000000000
     44240      6642  TIP3      OH2            28.2646911298      -22.5765915996      -41.2142432866  TIP3      6442            0.0000000000
     44241      6642  TIP3      H1             28.9145698470      -23.2748158206      -41.4845787594  TIP3      6442            0.0000000000
     44242      6642  TIP3      H2             28.0557264111      -22.9158817428      -40.3427527990  TIP3      6442            0.0000000000
     44243      6643  TIP3      OH2            25.5800116687      -28.5365262357      -38.9974064452  TIP3      6443            0.0000000000
     44244      6643  TIP3      H1             26.0155503739      -28.8220042746      -39.8318924120  TIP3      6443            0.0000000000
     44245      6643  TIP3      H2             26.4274135278      -28.1215732270      -38.7355353956  TIP3      6443            0.0000000000
     44246      6644  TIP3      OH2            34.4926625204      -36.6807809663      -38.4886186898  TIP3      6444            0.0000000000
     44247      6644  TIP3      H1             34.5924857340      -36.0597196261      -37.7223810484  TIP3      6444            0.0000000000
     44248      6644  TIP3      H2             34.9530739118      -36.2448019426      -39.1763101636  TIP3      6444            0.0000000000
     44249      6645  TIP3      OH2            28.9986220061      -33.8360882478      -38.9312435340  TIP3      6445            0.0000000000
     44250      6645  TIP3      H1             29.1697470178      -34.7999974234      -38.9426551798  TIP3      6445            0.0000000000
     44251      6645  TIP3      H2             28.8986024335      -33.6739937702      -39.8901768080  TIP3      6445            0.0000000000
     44252      6646  TIP3      OH2            22.1112042941      -35.7213054879      -41.7248833244  TIP3      6446            0.0000000000
     44253      6646  TIP3      H1             22.2150021558      -34.8783239597      -42.2063088793  TIP3      6446            0.0000000000
     44254      6646  TIP3      H2             21.7211782662      -36.3012590789      -42.4127902448  TIP3      6446            0.0000000000
     44255      6647  TIP3      OH2            29.8746922715      -35.6890187901      -43.4030582175  TIP3      6447            0.0000000000
     44256      6647  TIP3      H1             30.4927638933      -35.9615652052      -42.6891355954  TIP3      6447            0.0000000000
     44257      6647  TIP3      H2             30.4248818929      -35.0673450251      -43.9026665073  TIP3      6447            0.0000000000
     44258      6648  TIP3      OH2            18.7325019445      -33.3184401716      -40.9959979333  TIP3      6448            0.0000000000
     44259      6648  TIP3      H1             19.4071863480      -33.8619646433      -40.5385911542  TIP3      6448            0.0000000000
     44260      6648  TIP3      H2             18.8466290147      -33.6359921630      -41.9052655768  TIP3      6448            0.0000000000
     44261      6649  TIP3      OH2            23.8685791480      -31.7779074853      -41.6784287570  TIP3      6449            0.0000000000
     44262      6649  TIP3      H1             24.5727455134      -32.3237655872      -41.2798337649  TIP3      6449            0.0000000000
     44263      6649  TIP3      H2             23.3804825691      -32.4498471070      -42.1872599383  TIP3      6449            0.0000000000
     44264      6650  TIP3      OH2            34.9172327065      -35.2277417547      -36.2842496271  TIP3      6450            0.0000000000
     44265      6650  TIP3      H1             34.2669341303      -34.4972300183      -36.3698260539  TIP3      6450            0.0000000000
     44266      6650  TIP3      H2             34.9372173171      -35.2970320824      -35.3152475350  TIP3      6450            0.0000000000
     44267      6651  TIP3      OH2            21.0382451722      -36.8148307760      -37.6748413915  TIP3      6451            0.0000000000
     44268      6651  TIP3      H1             20.7348028211      -36.2918284254      -38.4441990001  TIP3      6451            0.0000000000
     44269      6651  TIP3      H2             20.3324294798      -36.6103967037      -37.0089907481  TIP3      6451            0.0000000000
     44270      6652  TIP3      OH2            28.2651355163      -27.3664230207      -44.1499290266  TIP3      6452            0.0000000000
     44271      6652  TIP3      H1             28.0798233595      -27.6447318780      -45.0542722083  TIP3      6452            0.0000000000
     44272      6652  TIP3      H2             28.0457645556      -26.4164649058      -44.0960338201  TIP3      6452            0.0000000000
     44273      6653  TIP3      OH2            23.5025838824      -29.2058774258      -37.3983603182  TIP3      6453            0.0000000000
     44274      6653  TIP3      H1             22.8241458038      -28.5274953065      -37.2197795398  TIP3      6453            0.0000000000
     44275      6653  TIP3      H2             24.2379561344      -28.6574246912      -37.7660405606  TIP3      6453            0.0000000000
     44276      6654  TIP3      OH2            31.6692509525      -36.2617338804      -41.3694438462  TIP3      6454            0.0000000000
     44277      6654  TIP3      H1             31.4548932791      -37.0682870386      -40.8608433348  TIP3      6454            0.0000000000
     44278      6654  TIP3      H2             32.3016328570      -35.8443079690      -40.7751230557  TIP3      6454            0.0000000000
     44279      6655  TIP3      OH2            20.5846968362      -34.9542982058      -39.6663689791  TIP3      6455            0.0000000000
     44280      6655  TIP3      H1             21.2183798827      -34.2843898101      -39.3276395753  TIP3      6455            0.0000000000
     44281      6655  TIP3      H2             21.1176317380      -35.3709886298      -40.3887654904  TIP3      6455            0.0000000000
     44282      6656  TIP3      OH2            21.9844558908      -27.1811917221      -36.6265412285  TIP3      6456            0.0000000000
     44283      6656  TIP3      H1             21.9335514005      -26.2667100403      -36.9623306137  TIP3      6456            0.0000000000
     44284      6656  TIP3      H2             21.1015315929      -27.2652076909      -36.1829463846  TIP3      6456            0.0000000000
     44285      6657  TIP3      OH2            18.0411798369      -27.5888169406      -45.8012078275  TIP3      6457            0.0000000000
     44286      6657  TIP3      H1             17.8180809129      -27.2750628440      -46.6991766850  TIP3      6457            0.0000000000
     44287      6657  TIP3      H2             18.1290723605      -26.7478119385      -45.3112243663  TIP3      6457            0.0000000000
     44288      6658  TIP3      OH2            31.6968277588      -25.8925450822      -39.0493768846  TIP3      6458            0.0000000000
     44289      6658  TIP3      H1             30.7117111589      -25.8197342246      -38.9735947035  TIP3      6458            0.0000000000
     44290      6658  TIP3      H2             31.9256440284      -24.9804793231      -39.2891932109  TIP3      6458            0.0000000000
     44291      6659  TIP3      OH2            32.0485918688      -37.6034444676      -37.5937530276  TIP3      6459            0.0000000000
     44292      6659  TIP3      H1             31.2640261568      -37.0608902621      -37.7796724977  TIP3      6459            0.0000000000
     44293      6659  TIP3      H2             32.6941713924      -37.2319503351      -38.2192524092  TIP3      6459            0.0000000000
     44294      6660  TIP3      OH2            24.9964877998      -39.4792402916      -40.1229725620  TIP3      6460            0.0000000000
     44295      6660  TIP3      H1             24.8679098967      -40.4365348578      -40.1195146384  TIP3      6460            0.0000000000
     44296      6660  TIP3      H2             24.1036204798      -39.1579253682      -39.9053598085  TIP3      6460            0.0000000000
     44297      6661  TIP3      OH2            29.9204172773      -24.1125601939      -42.4967180896  TIP3      6461            0.0000000000
     44298      6661  TIP3      H1             30.3563376625      -24.8497545564      -42.9710524767  TIP3      6461            0.0000000000
     44299      6661  TIP3      H2             30.3728073611      -23.3360010016      -42.8829430088  TIP3      6461            0.0000000000
     44300      6662  TIP3      OH2            31.1809488457      -26.2052939561      -43.9562523626  TIP3      6462            0.0000000000
     44301      6662  TIP3      H1             30.8221645967      -26.8865936280      -44.5445778153  TIP3      6462            0.0000000000
     44302      6662  TIP3      H2             31.1559302002      -26.6871708131      -43.1080668232  TIP3      6462            0.0000000000
     44303      6663  TIP3      OH2            32.7599900478      -27.5987739774      -35.4768474805  TIP3      6463            0.0000000000
     44304      6663  TIP3      H1             32.9055395078      -28.2516141802      -36.1936550810  TIP3      6463            0.0000000000
     44305      6663  TIP3      H2             32.9669666990      -26.7556587621      -35.9155891460  TIP3      6463            0.0000000000
     44306      6664  TIP3      OH2            27.2321142090      -30.6685478097      -45.7073790020  TIP3      6464            0.0000000000
     44307      6664  TIP3      H1             26.5471919782      -30.1234338593      -46.1280105188  TIP3      6464            0.0000000000
     44308      6664  TIP3      H2             27.9565106595      -30.6146511635      -46.3599112875  TIP3      6464            0.0000000000
     44309      6665  TIP3      OH2            27.3357703542      -32.2443687195      -48.6697058794  TIP3      6465            0.0000000000
     44310      6665  TIP3      H1             28.0581004983      -32.1799206425      -48.0123911380  TIP3      6465            0.0000000000
     44311      6665  TIP3      H2             27.7149646254      -32.8982765550      -49.2818372045  TIP3      6465            0.0000000000
     44312      6666  TIP3      OH2            34.6485982911      -31.2866205575      -37.4407394540  TIP3      6466            0.0000000000
     44313      6666  TIP3      H1             33.9887325472      -30.5623451223      -37.3798366197  TIP3      6466            0.0000000000
     44314      6666  TIP3      H2             35.1435925231      -31.0106876786      -38.2352583629  TIP3      6466            0.0000000000
     44315      6667  TIP3      OH2            30.7100021012      -30.4860660781      -44.8010761681  TIP3      6467            0.0000000000
     44316      6667  TIP3      H1             29.9658405590      -30.2374768320      -44.1834073935  TIP3      6467            0.0000000000
     44317      6667  TIP3      H2             31.1861633112      -31.1571091057      -44.2808922466  TIP3      6467            0.0000000000
     44318      6668  TIP3      OH2            30.6420971867      -32.3358829336      -35.6648136603  TIP3      6468            0.0000000000
     44319      6668  TIP3      H1             30.6446307432      -31.5131941937      -35.1475141213  TIP3      6468            0.0000000000
     44320      6668  TIP3      H2             30.0095035666      -32.0451286842      -36.3579613494  TIP3      6468            0.0000000000
     44321      6669  TIP3      OH2            22.3370345610      -29.8324169444      -42.8765395643  TIP3      6469            0.0000000000
     44322      6669  TIP3      H1             21.9774371691      -30.2412649247      -43.7060680527  TIP3      6469            0.0000000000
     44323      6669  TIP3      H2             22.9278714815      -30.5417259025      -42.5269078081  TIP3      6469            0.0000000000
     44324      6670  TIP3      OH2            23.6673776808      -26.4202842323      -40.2246835540  TIP3      6470            0.0000000000
     44325      6670  TIP3      H1             23.6203574023      -27.0337939418      -40.9567833861  TIP3      6470            0.0000000000
     44326      6670  TIP3      H2             24.4117029128      -26.8005357090      -39.7159586614  TIP3      6470            0.0000000000
     44327      6671  TIP3      OH2            22.6592397974      -31.0790216474      -39.2194476479  TIP3      6471            0.0000000000
     44328      6671  TIP3      H1             23.2215161819      -30.9774803016      -40.0118310758  TIP3      6471            0.0000000000
     44329      6671  TIP3      H2             23.0514410582      -30.4223616385      -38.6039326169  TIP3      6471            0.0000000000
     44330      6672  TIP3      OH2            29.1247626880      -25.4756052650      -38.4794819263  TIP3      6472            0.0000000000
     44331      6672  TIP3      H1             28.7362518297      -24.8848262095      -37.8373532547  TIP3      6472            0.0000000000
     44332      6672  TIP3      H2             28.8125971614      -26.3622351387      -38.1579903569  TIP3      6472            0.0000000000
     44333      6673  TIP3      OH2            23.6038887868      -26.6573687741      -34.5177371143  TIP3      6473            0.0000000000
     44334      6673  TIP3      H1             23.1872368864      -25.9209494472      -34.0254008253  TIP3      6473            0.0000000000
     44335      6673  TIP3      H2             22.9269382910      -26.8609801045      -35.2087042200  TIP3      6473            0.0000000000
     44336      6674  TIP3      OH2            29.5420590898      -31.2840199103      -47.1165330829  TIP3      6474            0.0000000000
     44337      6674  TIP3      H1             30.1128292622      -31.1269894828      -46.3228654422  TIP3      6474            0.0000000000
     44338      6674  TIP3      H2             30.0349749936      -30.8217428944      -47.8294744966  TIP3      6474            0.0000000000
     44339      6675  TIP3      OH2            20.5471474130      -30.4989600385      -35.3694014610  TIP3      6475            0.0000000000
     44340      6675  TIP3      H1             20.5989791446      -29.8438884362      -34.6468641527  TIP3      6475            0.0000000000
     44341      6675  TIP3      H2             19.6034985301      -30.4102931296      -35.5702559848  TIP3      6475            0.0000000000
     44342      6676  TIP3      OH2            27.1646425586      -24.6111592732      -43.6111172205  TIP3      6476            0.0000000000
     44343      6676  TIP3      H1             27.7334632637      -24.3162472297      -42.8733233305  TIP3      6476            0.0000000000
     44344      6676  TIP3      H2             26.7754844269      -23.7720923397      -43.8783611699  TIP3      6476            0.0000000000
     44345      6677  TIP3      OH2            21.8510200302      -24.6263760569      -33.7702568998  TIP3      6477            0.0000000000
     44346      6677  TIP3      H1             21.7876115510      -24.7248273417      -34.7354835381  TIP3      6477            0.0000000000
     44347      6677  TIP3      H2             20.9214721483      -24.7622894292      -33.5008166619  TIP3      6477            0.0000000000
     44348      6678  TIP3      OH2            33.3302023495      -39.5278978242      -47.2285828935  TIP3      6478            0.0000000000
     44349      6678  TIP3      H1             32.4037675996      -39.4586495773      -46.9424472598  TIP3      6478            0.0000000000
     44350      6678  TIP3      H2             33.4970295273      -38.6990041958      -47.6968556033  TIP3      6478            0.0000000000
     44351      6679  TIP3      OH2            21.2817720789      -30.7912190228      -45.2255784525  TIP3      6479            0.0000000000
     44352      6679  TIP3      H1             20.9814278192      -30.0436940239      -45.7802519755  TIP3      6479            0.0000000000
     44353      6679  TIP3      H2             20.6496196936      -31.4741114389      -45.4641622766  TIP3      6479            0.0000000000
     44354      6680  TIP3      OH2            34.3690286955      -25.1945127603      -48.7678598579  TIP3      6480            0.0000000000
     44355      6680  TIP3      H1             34.5368920651      -24.2418396889      -48.6618489917  TIP3      6480            0.0000000000
     44356      6680  TIP3      H2             35.2732441636      -25.5575105791      -48.8563564332  TIP3      6480            0.0000000000
     44357      6681  TIP3      OH2            17.4087647311      -28.3865243686      -36.3657605091  TIP3      6481            0.0000000000
     44358      6681  TIP3      H1             16.9385616490      -28.4704288182      -37.2166401076  TIP3      6481            0.0000000000
     44359      6681  TIP3      H2             17.4383084785      -29.3386330833      -36.1423045084  TIP3      6481            0.0000000000
     44360      6682  TIP3      OH2            17.1448166441      -25.6447484563      -39.5880375616  TIP3      6482            0.0000000000
     44361      6682  TIP3      H1             18.1013545387      -25.7759383788      -39.6094304861  TIP3      6482            0.0000000000
     44362      6682  TIP3      H2             17.0645083500      -24.8293312264      -39.0811560620  TIP3      6482            0.0000000000
     44363      6683  TIP3      OH2            35.3812537676      -24.9417616081      -33.9098707165  TIP3      6483            0.0000000000
     44364      6683  TIP3      H1             35.2735618749      -25.9055715756      -33.9197049131  TIP3      6483            0.0000000000
     44365      6683  TIP3      H2             34.5168743191      -24.7110323516      -33.4974267314  TIP3      6483            0.0000000000
     44366      6684  TIP3      OH2            26.3300600036      -25.4077520295      -35.0496479079  TIP3      6484            0.0000000000
     44367      6684  TIP3      H1             26.4017326828      -24.5707341112      -34.5294669138  TIP3      6484            0.0000000000
     44368      6684  TIP3      H2             25.4637627396      -25.7653259194      -34.7751923246  TIP3      6484            0.0000000000
     44369      6685  TIP3      OH2            26.7239261978      -21.6777217752      -45.2400396204  TIP3      6485            0.0000000000
     44370      6685  TIP3      H1             26.7151157506      -21.7216463954      -46.2117151612  TIP3      6485            0.0000000000
     44371      6685  TIP3      H2             26.7992511478      -20.7170257849      -45.0669125999  TIP3      6485            0.0000000000
     44372      6686  TIP3      OH2            20.4354975425      -22.7969366305      -43.3978291993  TIP3      6486            0.0000000000
     44373      6686  TIP3      H1             20.5564078802      -23.1972482384      -42.5079848371  TIP3      6486            0.0000000000
     44374      6686  TIP3      H2             19.5696374152      -23.1722539331      -43.6431211509  TIP3      6486            0.0000000000
     44375      6687  TIP3      OH2            29.7134964440      -22.3777377021      -48.2141157508  TIP3      6487            0.0000000000
     44376      6687  TIP3      H1             30.2155772388      -23.0987885570      -48.6714795949  TIP3      6487            0.0000000000
     44377      6687  TIP3      H2             29.8642832417      -22.6891200549      -47.3065461254  TIP3      6487            0.0000000000
     44378      6688  TIP3      OH2            29.5282218406      -22.4952369871      -45.4333268814  TIP3      6488            0.0000000000
     44379      6688  TIP3      H1             28.5651786366      -22.4340566901      -45.2961009420  TIP3      6488            0.0000000000
     44380      6688  TIP3      H2             29.7673834029      -23.2628407155      -44.8985907365  TIP3      6488            0.0000000000
     44381      6689  TIP3      OH2            32.5275936002      -33.4617764977      -33.4215782397  TIP3      6489            0.0000000000
     44382      6689  TIP3      H1             32.0482125625      -33.0173601077      -34.1404973556  TIP3      6489            0.0000000000
     44383      6689  TIP3      H2             32.5078511156      -34.3890503134      -33.7129333882  TIP3      6489            0.0000000000
     44384      6690  TIP3      OH2            19.6690458317      -27.0716125503      -35.4143151867  TIP3      6490            0.0000000000
     44385      6690  TIP3      H1             19.8851299953      -27.4410213466      -34.5301776571  TIP3      6490            0.0000000000
     44386      6690  TIP3      H2             18.8006712772      -27.4694866370      -35.6353626307  TIP3      6490            0.0000000000
     44387      6691  TIP3      OH2            22.3845317213      -38.6025492553      -39.3997455713  TIP3      6491            0.0000000000
     44388      6691  TIP3      H1             21.5140304255      -38.6912821607      -39.8440915819  TIP3      6491            0.0000000000
     44389      6691  TIP3      H2             22.2226177567      -37.7619816845      -38.9552416368  TIP3      6491            0.0000000000
     44390      6692  TIP3      OH2            26.9175910892      -38.6376290096      -35.8457494199  TIP3      6492            0.0000000000
     44391      6692  TIP3      H1             27.3924277843      -39.3362429470      -35.3760094598  TIP3      6492            0.0000000000
     44392      6692  TIP3      H2             26.0184346192      -39.0230384460      -35.9668426068  TIP3      6492            0.0000000000
     44393      6693  TIP3      OH2            30.2717659402      -35.1110061901      -35.2250108258  TIP3      6493            0.0000000000
     44394      6693  TIP3      H1             29.7111525168      -35.2718777180      -34.4288119633  TIP3      6493            0.0000000000
     44395      6693  TIP3      H2             30.1065618891      -34.1787317019      -35.4519879787  TIP3      6493            0.0000000000
     44396      6694  TIP3      OH2            31.2600615328      -30.3083771175      -48.8865923742  TIP3      6494            0.0000000000
     44397      6694  TIP3      H1             31.1246901169      -30.5877172393      -49.8213199803  TIP3      6494            0.0000000000
     44398      6694  TIP3      H2             32.1658965719      -29.9767552066      -49.0382419223  TIP3      6494            0.0000000000
     44399      6695  TIP3      OH2            26.5487063094      -36.3380454967      -48.7616559667  TIP3      6495            0.0000000000
     44400      6695  TIP3      H1             26.4348901467      -36.4699256894      -47.8084921473  TIP3      6495            0.0000000000
     44401      6695  TIP3      H2             26.3971778707      -37.2411232917      -49.0942557171  TIP3      6495            0.0000000000
     44402      6696  TIP3      OH2            22.4473563647      -33.6139649108      -38.2139626808  TIP3      6496            0.0000000000
     44403      6696  TIP3      H1             21.7113290529      -33.6310592978      -37.5787641055  TIP3      6496            0.0000000000
     44404      6696  TIP3      H2             22.3831145989      -32.7101756834      -38.5977556135  TIP3      6496            0.0000000000
     44405      6697  TIP3      OH2            22.4144440377      -33.5374657455      -43.3617315863  TIP3      6497            0.0000000000
     44406      6697  TIP3      H1             21.4649460947      -33.7498807900      -43.4809373570  TIP3      6497            0.0000000000
     44407      6697  TIP3      H2             22.7829498910      -33.7886379026      -44.2151618890  TIP3      6497            0.0000000000
     44408      6698  TIP3      OH2            27.9126232873      -33.0375003175      -44.6497385375  TIP3      6498            0.0000000000
     44409      6698  TIP3      H1             27.5568198498      -32.1747554432      -44.9591913850  TIP3      6498            0.0000000000
     44410      6698  TIP3      H2             28.6666927160      -33.1746240607      -45.2495015369  TIP3      6498            0.0000000000
     44411      6699  TIP3      OH2            26.9850452522      -32.7824396796      -33.1508206866  TIP3      6499            0.0000000000
     44412      6699  TIP3      H1             26.4636163225      -33.5674947503      -32.8482952329  TIP3      6499            0.0000000000
     44413      6699  TIP3      H2             27.8224505782      -32.9099817745      -32.6736480945  TIP3      6499            0.0000000000
     44414      6700  TIP3      OH2            28.9751228767      -33.5251960028      -41.7368371750  TIP3      6500            0.0000000000
     44415      6700  TIP3      H1             28.6803965078      -32.9397320523      -42.4568274658  TIP3      6500            0.0000000000
     44416      6700  TIP3      H2             29.0673918690      -34.3691568735      -42.2192006774  TIP3      6500            0.0000000000
     44417      6701  TIP3      OH2            20.0696415813      -33.3683106355      -36.5418637240  TIP3      6501            0.0000000000
     44418      6701  TIP3      H1             20.1558450254      -32.9659058171      -35.6605052389  TIP3      6501            0.0000000000
     44419      6701  TIP3      H2             19.6247221689      -34.2030847094      -36.3333140321  TIP3      6501            0.0000000000
     44420      6702  TIP3      OH2            23.4305433388      -35.9397369984      -49.6262279027  TIP3      6502            0.0000000000
     44421      6702  TIP3      H1             22.8662333784      -36.4807436734      -49.0501343576  TIP3      6502            0.0000000000
     44422      6702  TIP3      H2             22.7939687065      -35.5957201333      -50.2669047367  TIP3      6502            0.0000000000
     44423      6703  TIP3      OH2            16.7022244307      -36.2654356302      -42.5642762581  TIP3      6503            0.0000000000
     44424      6703  TIP3      H1             17.3874164473      -36.2468132501      -41.8668097431  TIP3      6503            0.0000000000
     44425      6703  TIP3      H2             17.1734684418      -36.6109015289      -43.3421372709  TIP3      6503            0.0000000000
     44426      6704  TIP3      OH2            18.0001053663      -35.5427852585      -47.1442263603  TIP3      6504            0.0000000000
     44427      6704  TIP3      H1             18.4853607177      -34.9472369304      -47.7522409443  TIP3      6504            0.0000000000
     44428      6704  TIP3      H2             17.3090034515      -34.9129840381      -46.8661480447  TIP3      6504            0.0000000000
     44429      6705  TIP3      OH2            28.1928452960      -31.9466130479      -37.1456204296  TIP3      6505            0.0000000000
     44430      6705  TIP3      H1             28.5362912394      -32.6054464965      -37.7816505655  TIP3      6505            0.0000000000
     44431      6705  TIP3      H2             27.6886491521      -32.4788324920      -36.5075597096  TIP3      6505            0.0000000000
     44432      6706  TIP3      OH2            24.9442705650      -35.9561554700      -42.3730274503  TIP3      6506            0.0000000000
     44433      6706  TIP3      H1             24.0242107261      -35.9870136085      -42.0424105589  TIP3      6506            0.0000000000
     44434      6706  TIP3      H2             25.4465860893      -36.1158611825      -41.5585015005  TIP3      6506            0.0000000000
     44435      6707  TIP3      OH2            19.7753127927      -34.4063457933      -43.4808644856  TIP3      6507            0.0000000000
     44436      6707  TIP3      H1             18.8953557268      -34.2408192126      -43.8692829373  TIP3      6507            0.0000000000
     44437      6707  TIP3      H2             20.0376619281      -35.2483119642      -43.8886051743  TIP3      6507            0.0000000000
     44438      6708  TIP3      OH2            23.4872603083      -34.4421660387      -45.9921457627  TIP3      6508            0.0000000000
     44439      6708  TIP3      H1             24.3546945554      -34.1968263414      -45.5968144953  TIP3      6508            0.0000000000
     44440      6708  TIP3      H2             23.1566466089      -33.6390325029      -46.4556362813  TIP3      6508            0.0000000000
     44441      6709  TIP3      OH2            29.3758296353      -36.7576401968      -39.1044151210  TIP3      6509            0.0000000000
     44442      6709  TIP3      H1             28.6900461601      -36.6537736968      -38.4032105881  TIP3      6509            0.0000000000
     44443      6709  TIP3      H2             28.8695868802      -37.0165660985      -39.8901956577  TIP3      6509            0.0000000000
     44444      6710  TIP3      OH2            22.2073855483      -33.2479340201      -48.2373823178  TIP3      6510            0.0000000000
     44445      6710  TIP3      H1             21.5354841218      -33.4676304030      -48.8990174491  TIP3      6510            0.0000000000
     44446      6710  TIP3      H2             22.9458201643      -32.9096354921      -48.7644085733  TIP3      6510            0.0000000000
     44447      6711  TIP3      OH2            32.5695773756      -21.0764070728      -32.7854000976  TIP3      6511            0.0000000000
     44448      6711  TIP3      H1             32.8345241128      -20.6903039046      -33.6375644323  TIP3      6511            0.0000000000
     44449      6711  TIP3      H2             33.2900477528      -20.7548539343      -32.2233517545  TIP3      6511            0.0000000000
     44450      6712  TIP3      OH2            20.2555477864      -28.6134642219      -33.2123920113  TIP3      6512            0.0000000000
     44451      6712  TIP3      H1             20.9691440983      -28.3627405661      -32.6002777151  TIP3      6512            0.0000000000
     44452      6712  TIP3      H2             19.4770958071      -28.5256638291      -32.6161804221  TIP3      6512            0.0000000000
     44453      6713  TIP3      OH2            26.2225620319      -33.2389650201      -40.4731761951  TIP3      6513            0.0000000000
     44454      6713  TIP3      H1             26.8663687593      -33.7544748141      -40.9714935689  TIP3      6513            0.0000000000
     44455      6713  TIP3      H2             26.0983888557      -33.7564419070      -39.6688096620  TIP3      6513            0.0000000000
     44456      6714  TIP3      OH2            21.2351979270      -37.0704212245      -44.0215522601  TIP3      6514            0.0000000000
     44457      6714  TIP3      H1             20.9100036065      -37.9865057346      -44.0049210477  TIP3      6514            0.0000000000
     44458      6714  TIP3      H2             22.0464451963      -37.1610472039      -44.5278500581  TIP3      6514            0.0000000000
     44459      6715  TIP3      OH2            24.8948352741      -34.8542338288      -38.0638384648  TIP3      6515            0.0000000000
     44460      6715  TIP3      H1             24.0571009908      -34.3556724879      -37.9484157415  TIP3      6515            0.0000000000
     44461      6715  TIP3      H2             25.4412192370      -34.5331722076      -37.3225440646  TIP3      6515            0.0000000000
     44462      6716  TIP3      OH2            25.4539594767      -28.5841336604      -46.3136928077  TIP3      6516            0.0000000000
     44463      6716  TIP3      H1             24.7017109468      -29.1163488382      -46.6691814285  TIP3      6516            0.0000000000
     44464      6716  TIP3      H2             25.2862961152      -28.6179787521      -45.3554591201  TIP3      6516            0.0000000000
     44465      6717  TIP3      OH2            32.6751097742      -29.4633286515      -37.5517643510  TIP3      6517            0.0000000000
     44466      6717  TIP3      H1             33.2236160403      -28.9629405152      -38.1801655226  TIP3      6517            0.0000000000
     44467      6717  TIP3      H2             31.8010169618      -29.3971852143      -38.0013972129  TIP3      6517            0.0000000000
     44468      6718  TIP3      OH2            29.2208615298      -35.7974564348      -47.9624279553  TIP3      6518            0.0000000000
     44469      6718  TIP3      H1             28.3372776443      -35.6191493127      -48.2935014537  TIP3      6518            0.0000000000
     44470      6718  TIP3      H2             29.6242058548      -34.9092217926      -47.8437637447  TIP3      6518            0.0000000000
     44471      6719  TIP3      OH2            26.9694611970      -28.3874407256      -35.0743521612  TIP3      6519            0.0000000000
     44472      6719  TIP3      H1             26.6052396945      -28.8002821133      -34.2866401350  TIP3      6519            0.0000000000
     44473      6719  TIP3      H2             26.7085494667      -27.4604052153      -35.0098404644  TIP3      6519            0.0000000000
     44474      6720  TIP3      OH2            30.0423234389      -33.8823169892      -46.4809376091  TIP3      6520            0.0000000000
     44475      6720  TIP3      H1             30.9345734643      -34.0358343529      -46.1157736560  TIP3      6520            0.0000000000
     44476      6720  TIP3      H2             30.1285875629      -33.0916249620      -47.0392764901  TIP3      6520            0.0000000000
     44477      6721  TIP3      OH2            20.5831826836      -29.2459827457      -40.5395477505  TIP3      6521            0.0000000000
     44478      6721  TIP3      H1             21.2521682783      -29.3497284012      -41.2375138252  TIP3      6521            0.0000000000
     44479      6721  TIP3      H2             20.6374269889      -30.1033249233      -40.0817098873  TIP3      6521            0.0000000000
     44480      6722  TIP3      OH2            27.6392064721      -27.1786973364      -47.2881222915  TIP3      6522            0.0000000000
     44481      6722  TIP3      H1             27.2539070539      -26.3295887011      -47.0013886159  TIP3      6522            0.0000000000
     44482      6722  TIP3      H2             26.8726279604      -27.7807378206      -47.1575191413  TIP3      6522            0.0000000000
     44483      6723  TIP3      OH2            17.5564173322      -30.8477099953      -35.2759033581  TIP3      6523            0.0000000000
     44484      6723  TIP3      H1             17.7330859531      -31.3033477559      -34.4323928325  TIP3      6523            0.0000000000
     44485      6723  TIP3      H2             16.9223504545      -31.4408481923      -35.7254766035  TIP3      6523            0.0000000000
     44486      6724  TIP3      OH2            24.5827607589      -31.2827828288      -33.1123024732  TIP3      6524            0.0000000000
     44487      6724  TIP3      H1             24.2646647646      -31.5978610167      -33.9683811779  TIP3      6524            0.0000000000
     44488      6724  TIP3      H2             25.5067618195      -31.6120385557      -33.1093451467  TIP3      6524            0.0000000000
     44489      6725  TIP3      OH2            29.2866763376      -25.9369736167      -35.1324533061  TIP3      6525            0.0000000000
     44490      6725  TIP3      H1             28.3647045640      -25.7888215334      -35.4017710810  TIP3      6525            0.0000000000
     44491      6725  TIP3      H2             29.2279822412      -25.6476132182      -34.2010535444  TIP3      6525            0.0000000000
     44492      6726  TIP3      OH2            34.9723615281      -33.7696652300      -46.7184590042  TIP3      6526            0.0000000000
     44493      6726  TIP3      H1             34.3960645464      -34.0458478514      -47.4646383830  TIP3      6526            0.0000000000
     44494      6726  TIP3      H2             35.0189734578      -32.8271435269      -46.9931485496  TIP3      6526            0.0000000000
     44495      6727  TIP3      OH2            34.9138096508      -27.9242952859      -33.9508639346  TIP3      6527            0.0000000000
     44496      6727  TIP3      H1             34.0313253138      -27.6971803405      -34.3299870552  TIP3      6527            0.0000000000
     44497      6727  TIP3      H2             35.4725274690      -27.9360209657      -34.7575613005  TIP3      6527            0.0000000000
     44498      6728  TIP3      OH2            33.2276435265      -24.9657728658      -46.3694046602  TIP3      6528            0.0000000000
     44499      6728  TIP3      H1             32.8616526937      -25.7876127095      -46.0302945825  TIP3      6528            0.0000000000
     44500      6728  TIP3      H2             33.5528021526      -25.1694022220      -47.2648680591  TIP3      6528            0.0000000000
     44501      6729  TIP3      OH2            30.4442885675      -30.1464014174      -39.2248506831  TIP3      6529            0.0000000000
     44502      6729  TIP3      H1             29.4911671374      -30.2746942463      -39.4070411356  TIP3      6529            0.0000000000
     44503      6729  TIP3      H2             30.8465124534      -30.8800797815      -39.7151951273  TIP3      6529            0.0000000000
     44504      6730  TIP3      OH2            22.7360858426      -25.6413880186      -43.0204825004  TIP3      6530            0.0000000000
     44505      6730  TIP3      H1             23.1854420088      -24.8010849700      -43.2270092591  TIP3      6530            0.0000000000
     44506      6730  TIP3      H2             21.8899439136      -25.5031059283      -43.4871215188  TIP3      6530            0.0000000000
     44507      6731  TIP3      OH2            18.7829872887      -31.0006415206      -48.5620418627  TIP3      6531            0.0000000000
     44508      6731  TIP3      H1             19.3197914200      -30.2943808158      -48.1634194273  TIP3      6531            0.0000000000
     44509      6731  TIP3      H2             17.8774807945      -30.6822938533      -48.3427520804  TIP3      6531            0.0000000000
     44510      6732  TIP3      OH2            24.3286812861      -28.3203454022      -43.6660460016  TIP3      6532            0.0000000000
     44511      6732  TIP3      H1             23.9883044825      -27.4962124099      -43.3886882088  TIP3      6532            0.0000000000
     44512      6732  TIP3      H2             23.6561668626      -28.8579186578      -43.1779869167  TIP3      6532            0.0000000000
     44513      6733  TIP3      OH2            24.8062861634      -23.9206663653      -37.2044281450  TIP3      6533            0.0000000000
     44514      6733  TIP3      H1             25.2836410893      -23.1380773253      -37.5209216158  TIP3      6533            0.0000000000
     44515      6733  TIP3      H2             25.4555335207      -24.3048801528      -36.5871269496  TIP3      6533            0.0000000000
     44516      6734  TIP3      OH2            23.0753530675      -23.1568587335      -44.0507170328  TIP3      6534            0.0000000000
     44517      6734  TIP3      H1             22.1012561244      -22.9942523597      -43.9777616926  TIP3      6534            0.0000000000
     44518      6734  TIP3      H2             23.4113188041      -22.2773182957      -43.7679994380  TIP3      6534            0.0000000000
     44519      6735  TIP3      OH2            28.4601490746      -27.8802761784      -37.4858715228  TIP3      6535            0.0000000000
     44520      6735  TIP3      H1             27.9980986925      -28.1896856880      -36.6912154634  TIP3      6535            0.0000000000
     44521      6735  TIP3      H2             28.9371179640      -28.6509176270      -37.8334699199  TIP3      6535            0.0000000000
     44522      6736  TIP3      OH2            30.5533802434      -26.9177088735      -48.3901143532  TIP3      6536            0.0000000000
     44523      6736  TIP3      H1             30.8542159630      -27.3381812045      -47.5590596182  TIP3      6536            0.0000000000
     44524      6736  TIP3      H2             29.5968853133      -27.0511368520      -48.2863115320  TIP3      6536            0.0000000000
     44525      6737  TIP3      OH2            31.1671932103      -23.3653769084      -35.1274334984  TIP3      6537            0.0000000000
     44526      6737  TIP3      H1             30.4723564831      -23.8618061379      -35.6023050556  TIP3      6537            0.0000000000
     44527      6737  TIP3      H2             31.3434055420      -22.6660918509      -35.7904993119  TIP3      6537            0.0000000000
     44528      6738  TIP3      OH2            35.1798418021      -22.4760083237      -48.2896258991  TIP3      6538            0.0000000000
     44529      6738  TIP3      H1             35.8469273931      -21.7992046633      -48.4801285679  TIP3      6538            0.0000000000
     44530      6738  TIP3      H2             34.4387598300      -21.9014478514      -47.9753319511  TIP3      6538            0.0000000000
     44531      6739  TIP3      OH2            19.2032813709      -36.1434406059      -35.7601170760  TIP3      6539            0.0000000000
     44532      6739  TIP3      H1             18.3086733348      -35.7651032961      -35.7463499290  TIP3      6539            0.0000000000
     44533      6739  TIP3      H2             19.0947677889      -36.9658803224      -35.2483574539  TIP3      6539            0.0000000000
     44534      6740  TIP3      OH2            31.4711947301      -28.2735155688      -46.3476912565  TIP3      6540            0.0000000000
     44535      6740  TIP3      H1             31.2187260358      -29.0328349545      -45.7854268305  TIP3      6540            0.0000000000
     44536      6740  TIP3      H2             32.4040390360      -28.1921122359      -46.0745547524  TIP3      6540            0.0000000000
     44537      6741  TIP3      OH2            18.8470567551      -24.3323832752      -37.3163747174  TIP3      6541            0.0000000000
     44538      6741  TIP3      H1             19.1463005116      -25.2544515284      -37.2970025448  TIP3      6541            0.0000000000
     44539      6741  TIP3      H2             19.0970342039      -24.0383568771      -36.4326968224  TIP3      6541            0.0000000000
     44540      6742  TIP3      OH2            23.6057189385      -26.2513861069      -47.5829090489  TIP3      6542            0.0000000000
     44541      6742  TIP3      H1             23.8371291183      -26.8212825372      -46.8514992970  TIP3      6542            0.0000000000
     44542      6742  TIP3      H2             23.6448855413      -25.3248324534      -47.2691722023  TIP3      6542            0.0000000000
     44543      6743  TIP3      OH2            20.0881269086      -29.0465669639      -47.1185042706  TIP3      6543            0.0000000000
     44544      6743  TIP3      H1             19.4066963741      -28.6281664351      -46.5562575163  TIP3      6543            0.0000000000
     44545      6743  TIP3      H2             20.6155559983      -28.2658146789      -47.3745194137  TIP3      6543            0.0000000000
     44546      6744  TIP3      OH2            27.9622907919      -36.3375115551      -36.7678820667  TIP3      6544            0.0000000000
     44547      6744  TIP3      H1             28.6820777755      -36.3155020860      -36.1252812692  TIP3      6544            0.0000000000
     44548      6744  TIP3      H2             27.5496142379      -37.2129212075      -36.5794358471  TIP3      6544            0.0000000000
     44549      6745  TIP3      OH2            28.7444699255      -36.8292440310      -45.6352850526  TIP3      6545            0.0000000000
     44550      6745  TIP3      H1             28.9258873030      -36.3014084813      -46.4492753038  TIP3      6545            0.0000000000
     44551      6745  TIP3      H2             29.2852976498      -36.3188971967      -45.0120438795  TIP3      6545            0.0000000000
     44552      6746  TIP3      OH2            26.3864224207      -24.6102787987      -46.8539347467  TIP3      6546            0.0000000000
     44553      6746  TIP3      H1             25.5757669954      -24.0762470270      -46.8269643671  TIP3      6546            0.0000000000
     44554      6746  TIP3      H2             26.9190371364      -24.0894859974      -47.4752288089  TIP3      6546            0.0000000000
     44555      6747  TIP3      OH2            25.9120382138      -35.0289374056      -44.8815086008  TIP3      6547            0.0000000000
     44556      6747  TIP3      H1             26.7032178489      -34.4490299712      -44.8541280738  TIP3      6547            0.0000000000
     44557      6747  TIP3      H2             25.6922651711      -35.1291858698      -43.9305043959  TIP3      6547            0.0000000000
     44558      6748  TIP3      OH2            26.4837129422      -34.0045747147      -35.6705031653  TIP3      6548            0.0000000000
     44559      6748  TIP3      H1             26.5675558572      -33.4507572341      -34.8671047666  TIP3      6548            0.0000000000
     44560      6748  TIP3      H2             27.1387034295      -34.7097973897      -35.5799078894  TIP3      6548            0.0000000000
     44561      6749  TIP3      OH2            26.7082270148      -37.9508412730      -43.9690830487  TIP3      6549            0.0000000000
     44562      6749  TIP3      H1             26.4493428728      -37.3003485409      -43.2911740037  TIP3      6549            0.0000000000
     44563      6749  TIP3      H2             27.4627263785      -37.4727036107      -44.3935796960  TIP3      6549            0.0000000000
     44564      6750  TIP3      OH2            23.7816766274      -23.5718532532      -46.7786707930  TIP3      6550            0.0000000000
     44565      6750  TIP3      H1             23.9318781476      -22.7692313253      -47.3393413201  TIP3      6550            0.0000000000
     44566      6750  TIP3      H2             23.4832265994      -23.1674898475      -45.9451295891  TIP3      6550            0.0000000000
     44567      6751  TIP3      OH2            22.1560110283      -36.9115136486      -47.2185427018  TIP3      6551            0.0000000000
     44568      6751  TIP3      H1             22.1491756180      -36.0333152809      -46.7878889266  TIP3      6551            0.0000000000
     44569      6751  TIP3      H2             22.9271605370      -37.3995501664      -46.8966167822  TIP3      6551            0.0000000000
     44570      6752  TIP3      OH2            32.6619125617      -36.1110576797      -34.8429740368  TIP3      6552            0.0000000000
     44571      6752  TIP3      H1             31.7227565553      -35.8256983897      -34.9570150593  TIP3      6552            0.0000000000
     44572      6752  TIP3      H2             32.9381246063      -36.1396206247      -35.7696690365  TIP3      6552            0.0000000000
     44573      6753  TIP3      OH2            31.2933888421      -32.3698803403      -40.8192453542  TIP3      6553            0.0000000000
     44574      6753  TIP3      H1             30.4340075395      -32.7506534461      -41.0841177134  TIP3      6553            0.0000000000
     44575      6753  TIP3      H2             31.7353975355      -33.0637015055      -40.2909972591  TIP3      6553            0.0000000000
     44576      6754  TIP3      OH2            20.7368593020      -26.4780653538      -48.0933385857  TIP3      6554            0.0000000000
     44577      6754  TIP3      H1             21.3327022319      -25.7402188941      -47.9206708227  TIP3      6554            0.0000000000
     44578      6754  TIP3      H2             21.1376051777      -26.8298484298      -48.9146194285  TIP3      6554            0.0000000000
     44579      6755  TIP3      OH2            19.0520338754      -33.7274435394      -48.9414020185  TIP3      6555            0.0000000000
     44580      6755  TIP3      H1             19.0303877066      -32.7577641639      -48.8586274730  TIP3      6555            0.0000000000
     44581      6755  TIP3      H2             18.2177205479      -33.9328725663      -49.4062714607  TIP3      6555            0.0000000000
     44582      6756  TIP3      OH2            32.3420740487      -23.0624739028      -39.1448813300  TIP3      6556            0.0000000000
     44583      6756  TIP3      H1             32.2413640388      -22.3952778033      -39.8508954522  TIP3      6556            0.0000000000
     44584      6756  TIP3      H2             33.2979344706      -23.0390248270      -38.9846855645  TIP3      6556            0.0000000000
     44585      6757  TIP3      OH2            19.8478823936      -38.8144245380      -40.3687164358  TIP3      6557            0.0000000000
     44586      6757  TIP3      H1             19.6634247161      -38.8583957806      -41.3376811351  TIP3      6557            0.0000000000
     44587      6757  TIP3      H2             19.5864584640      -39.7066151912      -40.1635210367  TIP3      6557            0.0000000000
     44588      6758  TIP3      OH2            18.8017690153      -25.0322352757      -44.1985429751  TIP3      6558            0.0000000000
     44589      6758  TIP3      H1             17.9415754692      -24.6054625634      -44.2401131179  TIP3      6558            0.0000000000
     44590      6758  TIP3      H2             19.2591538801      -24.5593463799      -44.9033340611  TIP3      6558            0.0000000000
     44591      6759  TIP3      OH2            17.9785944019      -22.3709834746      -32.9161100565  TIP3      6559            0.0000000000
     44592      6759  TIP3      H1             18.5914225433      -22.5794709355      -32.1822427160  TIP3      6559            0.0000000000
     44593      6759  TIP3      H2             17.5846898109      -23.2414445295      -33.0993189913  TIP3      6559            0.0000000000
     44594      6760  TIP3      OH2            22.6678191717      -23.4625696405      -31.3064199775  TIP3      6560            0.0000000000
     44595      6760  TIP3      H1             23.4244686678      -23.9613676337      -30.9721268881  TIP3      6560            0.0000000000
     44596      6760  TIP3      H2             22.6409952935      -23.7432315608      -32.2395975746  TIP3      6560            0.0000000000
     44597      6761  TIP3      OH2            26.7186935067      -23.9999671296      -49.9770018970  TIP3      6561            0.0000000000
     44598      6761  TIP3      H1             26.1017661303      -24.6587402226      -49.6454524689  TIP3      6561            0.0000000000
     44599      6761  TIP3      H2             27.5086978438      -24.5281689121      -50.1235877518  TIP3      6561            0.0000000000
     44600      6762  TIP3      OH2            29.1700264677      -25.0768483566      -32.5500561349  TIP3      6562            0.0000000000
     44601      6762  TIP3      H1             28.8589417766      -25.9676463706      -32.2821361343  TIP3      6562            0.0000000000
     44602      6762  TIP3      H2             29.9429518143      -24.9613602950      -31.9625936002  TIP3      6562            0.0000000000
     44603      6763  TIP3      OH2            30.9474428845      -24.3214826004      -49.3083553387  TIP3      6563            0.0000000000
     44604      6763  TIP3      H1             31.5435634573      -24.9891854516      -48.9431507049  TIP3      6563            0.0000000000
     44605      6763  TIP3      H2             31.5875205114      -23.8518570222      -49.9235498523  TIP3      6563            0.0000000000
     44606      6764  TIP3      OH2            17.9141337950      -28.6021619212      -31.9505421794  TIP3      6564            0.0000000000
     44607      6764  TIP3      H1             18.0695377848      -29.5273342157      -32.2152538484  TIP3      6564            0.0000000000
     44608      6764  TIP3      H2             17.1517973984      -28.3580380784      -32.4941057862  TIP3      6564            0.0000000000
     44609      6765  TIP3      OH2            22.3269048826      -28.3295933364      -49.8104487034  TIP3      6565            0.0000000000
     44610      6765  TIP3      H1             22.4158351267      -29.0830348115      -49.2174430602  TIP3      6565            0.0000000000
     44611      6765  TIP3      H2             23.0105279212      -28.4222033870      -50.4818813130  TIP3      6565            0.0000000000
     44612      6766  TIP3      OH2            24.6150875232      -28.6223239192      -32.5414914635  TIP3      6566            0.0000000000
     44613      6766  TIP3      H1             24.2903015623      -28.3120197261      -33.4122089978  TIP3      6566            0.0000000000
     44614      6766  TIP3      H2             24.6889398621      -29.5997725265      -32.6432956844  TIP3      6566            0.0000000000
     44615      6767  TIP3      OH2            30.3134998738      -28.7641597471      -35.1267450544  TIP3      6567            0.0000000000
     44616      6767  TIP3      H1             31.0988518526      -28.1798919509      -35.2013052640  TIP3      6567            0.0000000000
     44617      6767  TIP3      H2             29.6075384099      -28.0987830578      -35.1409628540  TIP3      6567            0.0000000000
     44618      6768  TIP3      OH2            18.8209123903      -31.3948715502      -32.5605493710  TIP3      6568            0.0000000000
     44619      6768  TIP3      H1             19.2437291259      -32.2547172793      -32.6266470885  TIP3      6568            0.0000000000
     44620      6768  TIP3      H2             18.5892540061      -31.3633219616      -31.6072559678  TIP3      6568            0.0000000000
     44621      6769  TIP3      OH2            23.4505925525      -30.2611273400      -47.4710277712  TIP3      6569            0.0000000000
     44622      6769  TIP3      H1             22.9440325886      -30.7659616426      -46.8137988053  TIP3      6569            0.0000000000
     44623      6769  TIP3      H2             23.7817572657      -30.9659736092      -48.0659623107  TIP3      6569            0.0000000000
     44624      6770  TIP3      OH2            22.7181585044      -32.4473251492      -35.1881892781  TIP3      6570            0.0000000000
     44625      6770  TIP3      H1             22.1244488478      -31.7226900963      -34.9287528103  TIP3      6570            0.0000000000
     44626      6770  TIP3      H2             23.1184182129      -32.0717816463      -35.9920942155  TIP3      6570            0.0000000000
     44627      6771  TIP3      OH2            24.6379687140      -32.1099666633      -49.1505411572  TIP3      6571            0.0000000000
     44628      6771  TIP3      H1             24.3963216861      -32.1347927366      -50.0979642736  TIP3      6571            0.0000000000
     44629      6771  TIP3      H2             25.6005954738      -31.9365148429      -49.1404564888  TIP3      6571            0.0000000000
     44630      6772  TIP3      OH2            27.7947885939      -29.8711502904      -31.8445551007  TIP3      6572            0.0000000000
     44631      6772  TIP3      H1             28.7511449495      -29.8849359387      -31.9733731037  TIP3      6572            0.0000000000
     44632      6772  TIP3      H2             27.6255544663      -30.6419658146      -31.2796319513  TIP3      6572            0.0000000000
     44633      6773  TIP3      OH2            33.5514253911      -29.9115925892       50.1950272971  TIP3      6573            0.0000000000
     44634      6773  TIP3      H1             33.7528038570      -30.2515132153       49.3145720432  TIP3      6573            0.0000000000
     44635      6773  TIP3      H2             33.9728799726      -29.0286466830       50.0973367036  TIP3      6573            0.0000000000
     44636      6774  TIP3      OH2            23.1415104218      -35.0662199622      -34.1279842306  TIP3      6574            0.0000000000
     44637      6774  TIP3      H1             23.2634324206      -35.7598614277      -34.7975462975  TIP3      6574            0.0000000000
     44638      6774  TIP3      H2             23.0893567840      -34.2559687372      -34.6770268660  TIP3      6574            0.0000000000
     44639      6775  TIP3      OH2            23.5280940557      -36.6149356708      -36.5801985706  TIP3      6575            0.0000000000
     44640      6775  TIP3      H1             24.0525138580      -36.2128194403      -37.3096299773  TIP3      6575            0.0000000000
     44641      6775  TIP3      H2             22.6424691294      -36.7645080705      -36.9889225451  TIP3      6575            0.0000000000
     44642      6776  TIP3      OH2            25.0733455966      -31.1829588965      -36.3346880956  TIP3      6576            0.0000000000
     44643      6776  TIP3      H1             25.8264331909      -31.3401469203      -36.9129783610  TIP3      6576            0.0000000000
     44644      6776  TIP3      H2             24.7123819281      -30.3487920168      -36.6799503278  TIP3      6576            0.0000000000
     44645      6777  TIP3      OH2            29.4615313418      -33.4337499451      -31.3824541779  TIP3      6577            0.0000000000
     44646      6777  TIP3      H1             29.7119929218      -34.3642936585      -31.4766354935  TIP3      6577            0.0000000000
     44647      6777  TIP3      H2             30.3266089772      -32.9912387672      -31.3372380199  TIP3      6577            0.0000000000
     44648      6778  TIP3      OH2            30.7932469974      -30.6392019662      -33.1971758995  TIP3      6578            0.0000000000
     44649      6778  TIP3      H1             30.5453185457      -29.9205721393      -33.8192809882  TIP3      6578            0.0000000000
     44650      6778  TIP3      H2             31.7492710450      -30.6701968881      -33.4007387539  TIP3      6578            0.0000000000
     44651      6779  TIP3      OH2            21.5861126084      -33.8001627942      -32.2097542782  TIP3      6579            0.0000000000
     44652      6779  TIP3      H1             20.8192017366      -34.3809791206      -32.3785109197  TIP3      6579            0.0000000000
     44653      6779  TIP3      H2             22.2478320990      -34.1597442394      -32.8311643309  TIP3      6579            0.0000000000
     44654      6780  TIP3      OH2            24.3902702579      -39.0614896349      -36.1311933415  TIP3      6580            0.0000000000
     44655      6780  TIP3      H1             24.1614336665      -38.1116690722      -36.2330253611  TIP3      6580            0.0000000000
     44656      6780  TIP3      H2             23.6103465582      -39.4793161669      -36.5165502651  TIP3      6580            0.0000000000
     44657      6781  TIP3      OH2            25.5941755055      -34.9224543141      -32.5614634173  TIP3      6581            0.0000000000
     44658      6781  TIP3      H1             25.2807240327      -35.1672311567      -31.6707614040  TIP3      6581            0.0000000000
     44659      6781  TIP3      H2             24.8056827259      -35.1265606789      -33.0912806157  TIP3      6581            0.0000000000
     44660      6782  TIP3      OH2            28.3097072420      -35.7805986966      -33.4470558093  TIP3      6582            0.0000000000
     44661      6782  TIP3      H1             27.3414681429      -35.7250497349      -33.3593818537  TIP3      6582            0.0000000000
     44662      6782  TIP3      H2             28.5577798496      -36.4253270167      -32.7594377714  TIP3      6582            0.0000000000
     44663      6783  TIP3      OH2            29.8772296669      -36.9460721794      -31.5334272287  TIP3      6583            0.0000000000
     44664      6783  TIP3      H1             29.8801637700      -37.9373282211      -31.5816492484  TIP3      6583            0.0000000000
     44665      6783  TIP3      H2             29.6211641153      -36.7994920009      -30.6089618126  TIP3      6583            0.0000000000
     44666      6784  TIP3      OH2            19.6667211066      -35.8972524215      -32.4356383392  TIP3      6584            0.0000000000
     44667      6784  TIP3      H1             19.8913256407      -36.6437738163      -33.0285507511  TIP3      6584            0.0000000000
     44668      6784  TIP3      H2             19.5788799080      -36.3525521496      -31.5784591254  TIP3      6584            0.0000000000
     44669      6785  TIP3      OH2            24.5111307291       39.8576299316      -33.4642974481  TIP3      6585            0.0000000000
     44670      6785  TIP3      H1             25.2453306771       39.2341183098      -33.4751826397  TIP3      6585            0.0000000000
     44671      6785  TIP3      H2             24.4429072893       40.1186397879      -34.4059851610  TIP3      6585            0.0000000000
     44672      6786  TIP3      OH2            24.9638735539      -38.1526000917      -31.4323063302  TIP3      6586            0.0000000000
     44673      6786  TIP3      H1             24.7261192791      -38.7513171199      -32.1693460928  TIP3      6586            0.0000000000
     44674      6786  TIP3      H2             24.2976418825      -37.4509049717      -31.4770387350  TIP3      6586            0.0000000000
     44675      6787  TIP3      OH2            24.3688356032      -21.3280481427      -48.2050650623  TIP3      6587            0.0000000000
     44676      6787  TIP3      H1             25.3397338349      -21.2253762550      -48.1269440750  TIP3      6587            0.0000000000
     44677      6787  TIP3      H2             24.1669269593      -20.7028445864      -48.9111184568  TIP3      6587            0.0000000000
     44678      6788  TIP3      OH2            18.0063462115      -26.7580215219      -48.6393143625  TIP3      6588            0.0000000000
     44679      6788  TIP3      H1             18.9699930448      -26.6501942952      -48.4955324396  TIP3      6588            0.0000000000
     44680      6788  TIP3      H2             17.9931551872      -27.3590969135      -49.3995571673  TIP3      6588            0.0000000000
     44681      6789  TIP3      OH2            16.6981974181      -21.3668003605      -43.7621938568  TIP3      6589            0.0000000000
     44682      6789  TIP3      H1             15.9770353106      -21.8515229855      -44.2216852132  TIP3      6589            0.0000000000
     44683      6789  TIP3      H2             16.9660287066      -22.0154045830      -43.0845993151  TIP3      6589            0.0000000000
     44684      6790  TIP3      OH2            17.4852732753      -23.2125019689      -41.8784691871  TIP3      6590            0.0000000000
     44685      6790  TIP3      H1             17.1892888775      -24.1143938235      -41.6934348669  TIP3      6590            0.0000000000
     44686      6790  TIP3      H2             17.7584803505      -22.9050496164      -40.9963776605  TIP3      6590            0.0000000000
     44687      6791  TIP3      OH2            35.2087192876      -22.5300756771      -38.9092388419  TIP3      6591            0.0000000000
     44688      6791  TIP3      H1             34.9856844463      -22.2451074241      -38.0025593002  TIP3      6591            0.0000000000
     44689      6791  TIP3      H2             35.6722532272      -21.7774344582      -39.2950242571  TIP3      6591            0.0000000000
     44690      6792  TIP3      OH2            34.7234566871      -22.8569635975      -36.0547568472  TIP3      6592            0.0000000000
     44691      6792  TIP3      H1             34.1432478814      -23.5902371815      -36.3740865589  TIP3      6592            0.0000000000
     44692      6792  TIP3      H2             35.0961112122      -23.3074525991      -35.2715242116  TIP3      6592            0.0000000000
     44693      6793  TIP3      OH2            33.0751053454      -27.1172177560      -31.3339168246  TIP3      6593            0.0000000000
     44694      6793  TIP3      H1             32.1696537949      -27.1454627485      -30.9716526412  TIP3      6593            0.0000000000
     44695      6793  TIP3      H2             33.4461188072      -26.3107043904      -30.9268916080  TIP3      6593            0.0000000000
     44696      6794  TIP3      OH2            34.3414146511      -28.7777090722      -45.8853220373  TIP3      6594            0.0000000000
     44697      6794  TIP3      H1             35.2216076277      -28.3987570785      -45.7114245940  TIP3      6594            0.0000000000
     44698      6794  TIP3      H2             34.3724577390      -29.5106266448      -45.2291701387  TIP3      6594            0.0000000000
     44699      6795  TIP3      OH2            34.7748408789      -30.7336246324      -44.0306758834  TIP3      6595            0.0000000000
     44700      6795  TIP3      H1             34.0033533182      -31.2080521304      -43.6483174931  TIP3      6595            0.0000000000
     44701      6795  TIP3      H2             35.3505622600      -30.5632624876      -43.2614323391  TIP3      6595            0.0000000000
     44702      6796  TIP3      OH2            34.5432798996      -28.0422953037      -39.0365756235  TIP3      6596            0.0000000000
     44703      6796  TIP3      H1             35.3699148794      -28.3977571243      -39.4057827880  TIP3      6596            0.0000000000
     44704      6796  TIP3      H2             34.6431065615      -27.0857898198      -39.2200225976  TIP3      6596            0.0000000000
     44705      6797  TIP3      OH2            33.0798689298      -25.1018950651      -36.7609204829  TIP3      6597            0.0000000000
     44706      6797  TIP3      H1             32.3773697735      -24.7785820815      -36.1759771588  TIP3      6597            0.0000000000
     44707      6797  TIP3      H2             32.5316160936      -25.5070187779      -37.4711868816  TIP3      6597            0.0000000000
     44708      6798  TIP3      OH2            35.0706365000      -30.8376643239      -47.6352761694  TIP3      6598            0.0000000000
     44709      6798  TIP3      H1             34.4859057356      -30.5277560992      -48.3482988636  TIP3      6598            0.0000000000
     44710      6798  TIP3      H2             34.9821161412      -30.1447192379      -46.9537583385  TIP3      6598            0.0000000000
     44711      6799  TIP3      OH2            33.3750157803      -33.5562362226      -48.7696340535  TIP3      6599            0.0000000000
     44712      6799  TIP3      H1             33.5519469716      -32.9721934002      -49.5270881186  TIP3      6599            0.0000000000
     44713      6799  TIP3      H2             33.4212866740      -34.4190983657      -49.2303548878  TIP3      6599            0.0000000000
     44714      6800  TIP3      OH2            32.5956304366      -32.2503154658      -43.4141517073  TIP3      6600            0.0000000000
     44715      6800  TIP3      H1             32.3967251053      -33.1931755344      -43.4975845854  TIP3      6600            0.0000000000
     44716      6800  TIP3      H2             32.2240209006      -32.0271056513      -42.5429079746  TIP3      6600            0.0000000000
     44717      6801  TIP3      OH2            17.5886289272      -30.1405622957      -39.3966671148  TIP3      6601            0.0000000000
     44718      6801  TIP3      H1             17.7565511916      -30.2317677344      -40.3569081846  TIP3      6601            0.0000000000
     44719      6801  TIP3      H2             18.4772295613      -30.3322139807      -39.0399052831  TIP3      6601            0.0000000000
     44720      6802  TIP3      OH2            33.4114175997      -30.2711586090      -33.7343796213  TIP3      6602            0.0000000000
     44721      6802  TIP3      H1             34.0366192905      -31.0192032132      -33.6225360629  TIP3      6602            0.0000000000
     44722      6802  TIP3      H2             34.0161104927      -29.4997930097      -33.7637949136  TIP3      6602            0.0000000000
     44723      6803  TIP3      OH2            34.9725775897      -32.4007365467      -33.1275729053  TIP3      6603            0.0000000000
     44724      6803  TIP3      H1             34.0811148336      -32.7827080287      -33.2705020144  TIP3      6603            0.0000000000
     44725      6803  TIP3      H2             35.5334615086      -33.1989857289      -33.1859145143  TIP3      6603            0.0000000000
     44726      6804  TIP3      OH2            32.6653021922      -36.2477367617      -49.8762283575  TIP3      6604            0.0000000000
     44727      6804  TIP3      H1             33.2613800389      -36.7405820838      -49.2884041023  TIP3      6604            0.0000000000
     44728      6804  TIP3      H2             31.8007366244      -36.6735878710      -49.7795598630  TIP3      6604            0.0000000000
     44729      6805  TIP3      OH2            32.2345377667      -34.6524244535      -44.9877179777  TIP3      6605            0.0000000000
     44730      6805  TIP3      H1             32.5231014295      -35.5849797735      -44.8764850337  TIP3      6605            0.0000000000
     44731      6805  TIP3      H2             33.0223588225      -34.2540385418      -45.3919500207  TIP3      6605            0.0000000000
     44732      6806  TIP3      OH2            32.9240064392      -34.1624173572      -39.5534228095  TIP3      6606            0.0000000000
     44733      6806  TIP3      H1             33.8168370938      -33.7794769564      -39.5315326732  TIP3      6606            0.0000000000
     44734      6806  TIP3      H2             32.6536902509      -33.9886175035      -38.6299125971  TIP3      6606            0.0000000000
     44735      6807  TIP3      OH2            32.9337936515      -33.3886072977      -36.8295166966  TIP3      6607            0.0000000000
     44736      6807  TIP3      H1             32.0698367318      -33.1071229021      -36.4495624344  TIP3      6607            0.0000000000
     44737      6807  TIP3      H2             33.3705131718      -32.5141693172      -36.9766588367  TIP3      6607            0.0000000000
     44738      6808  TIP3      OH2            17.2219636342      -34.8835463387      -33.2816699055  TIP3      6608            0.0000000000
     44739      6808  TIP3      H1             18.1502936139      -35.0960511727      -33.0441115915  TIP3      6608            0.0000000000
     44740      6808  TIP3      H2             16.7509461572      -35.6789590569      -32.9675083532  TIP3      6608            0.0000000000
     44741      6809  TIP3      OH2            35.4402252170      -39.2466201977      -31.3506781949  TIP3      6609            0.0000000000
     44742      6809  TIP3      H1             35.4531907307      -39.9943727562      -31.9862661002  TIP3      6609            0.0000000000
     44743      6809  TIP3      H2             35.2893290673      -38.4935682729      -31.9576150379  TIP3      6609            0.0000000000
     44744      6810  TIP3      OH2            32.8646904212      -37.3340229552      -44.9300605052  TIP3      6610            0.0000000000
     44745      6810  TIP3      H1             33.0960625873      -37.8174101901      -44.1143680918  TIP3      6610            0.0000000000
     44746      6810  TIP3      H2             32.3087552112      -38.0007019785      -45.3982568097  TIP3      6610            0.0000000000
     44747      6811  TIP3      OH2            18.3870496401      -36.5535482577      -40.3991919550  TIP3      6611            0.0000000000
     44748      6811  TIP3      H1             18.8452850417      -37.3632943185      -40.0999951705  TIP3      6611            0.0000000000
     44749      6811  TIP3      H2             18.9478611620      -35.8601329495      -40.0242589682  TIP3      6611            0.0000000000
     44750      6812  TIP3      OH2            16.6724385573      -33.5567115051      -39.3412183804  TIP3      6612            0.0000000000
     44751      6812  TIP3      H1             17.2380094056      -33.7892679978      -40.1039706981  TIP3      6612            0.0000000000
     44752      6812  TIP3      H2             17.1204463510      -32.7434079833      -39.0656713036  TIP3      6612            0.0000000000
     44753      6813  TIP3      OH2            34.7271469097      -37.2937975311      -33.0790850045  TIP3      6613            0.0000000000
     44754      6813  TIP3      H1             33.8074006904      -36.9642809317      -33.1072608482  TIP3      6613            0.0000000000
     44755      6813  TIP3      H2             34.7305682035      -37.7989058334      -33.9022179210  TIP3      6613            0.0000000000
     44756      6814  TIP3      OH2            34.7679488840      -37.3477992884      -48.3642687916  TIP3      6614            0.0000000000
     44757      6814  TIP3      H1             35.1455799402      -38.0300791889      -48.9396882752  TIP3      6614            0.0000000000
     44758      6814  TIP3      H2             35.4402403982      -36.6562433771      -48.4118627043  TIP3      6614            0.0000000000
     44759      6815  TIP3      OH2            17.0453861428      -37.2955694265      -45.2311323733  TIP3      6615            0.0000000000
     44760      6815  TIP3      H1             16.1098634408      -37.1161682210      -45.4108758326  TIP3      6615            0.0000000000
     44761      6815  TIP3      H2             17.4614452161      -36.8368456043      -45.9864150474  TIP3      6615            0.0000000000
     44762      6816  TIP3      OH2            31.7912624292      -22.3544764995      -43.3424991535  TIP3      6616            0.0000000000
     44763      6816  TIP3      H1             32.4640514378      -22.6616224732      -43.9669600048  TIP3      6616            0.0000000000
     44764      6816  TIP3      H2             32.3035209880      -21.8558742266      -42.6849228204  TIP3      6616            0.0000000000
     44765      6817  TIP3      OH2            17.0079172470      -38.6370359109      -37.0788514914  TIP3      6617            0.0000000000
     44766      6817  TIP3      H1             16.4176018437      -38.7242542945      -36.3008006728  TIP3      6617            0.0000000000
     44767      6817  TIP3      H2             16.5498204024      -37.9285667532      -37.5730586591  TIP3      6617            0.0000000000
     44768      6818  TIP3      OH2            19.2345740536      -25.4385529205      -32.8242950727  TIP3      6618            0.0000000000
     44769      6818  TIP3      H1             18.3922243645      -25.2304840211      -33.2596612006  TIP3      6618            0.0000000000
     44770      6818  TIP3      H2             18.9663789511      -25.5287415367      -31.9028481873  TIP3      6618            0.0000000000
     44771      6819  TIP3      OH2            22.1275073781      -24.4370868533      -36.5399610221  TIP3      6619            0.0000000000
     44772      6819  TIP3      H1             21.8036150142      -23.5678395708      -36.8130327362  TIP3      6619            0.0000000000
     44773      6819  TIP3      H2             23.0563029244      -24.3554550588      -36.8409196786  TIP3      6619            0.0000000000
     44774      6820  TIP3      OH2            26.4517407614      -23.0161754603      -33.6387790550  TIP3      6620            0.0000000000
     44775      6820  TIP3      H1             26.5881677436      -23.3710151262      -32.7296313482  TIP3      6620            0.0000000000
     44776      6820  TIP3      H2             27.3548030051      -22.7144874370      -33.8790709440  TIP3      6620            0.0000000000
     44777      6821  TIP3      OH2            28.7388341166      -21.7513221427      -34.3253154141  TIP3      6621            0.0000000000
     44778      6821  TIP3      H1             29.4695436394      -22.3349665436      -34.5644671991  TIP3      6621            0.0000000000
     44779      6821  TIP3      H2             29.1132318846      -21.3110994055      -33.5316175141  TIP3      6621            0.0000000000
     44780      6822  TIP3      OH2            33.9485673115      -38.9407824345      -35.4028944031  TIP3      6622            0.0000000000
     44781      6822  TIP3      H1             33.0092016054      -38.7205980461      -35.5731367320  TIP3      6622            0.0000000000
     44782      6822  TIP3      H2             34.0472984665      -39.8620880088      -35.6415857030  TIP3      6622            0.0000000000
     44783      6823  TIP3      OH2            19.5520298343      -21.2075279861      -36.5468431469  TIP3      6623            0.0000000000
     44784      6823  TIP3      H1             18.8215954972      -20.7041457627      -36.9423570006  TIP3      6623            0.0000000000
     44785      6823  TIP3      H2             19.2419448330      -21.3912837406      -35.6475627791  TIP3      6623            0.0000000000
     44786      6824  TIP3      OH2            22.0211745995      -21.6300867517      -37.4749058107  TIP3      6624            0.0000000000
     44787      6824  TIP3      H1             21.1303955139      -21.4749911328      -37.0803476966  TIP3      6624            0.0000000000
     44788      6824  TIP3      H2             21.9691264214      -21.0368781339      -38.2470401694  TIP3      6624            0.0000000000
     44789      6825  TIP3      OH2            26.7302951139      -21.7148836089      -38.3076047469  TIP3      6625            0.0000000000
     44790      6825  TIP3      H1             26.2616094176      -21.1669306824      -38.9530213010  TIP3      6625            0.0000000000
     44791      6825  TIP3      H2             26.8607808474      -21.0842511144      -37.5684713060  TIP3      6625            0.0000000000
     44792      6826  TIP3      OH2            29.0150519157      -22.9038385246      -37.2591091374  TIP3      6626            0.0000000000
     44793      6826  TIP3      H1             28.1682514324      -22.6473902234      -37.6579926071  TIP3      6626            0.0000000000
     44794      6826  TIP3      H2             29.5027404758      -22.0733718247      -37.3677724411  TIP3      6626            0.0000000000
     44795      6827  TIP3      OH2            31.6079870733      -21.3309558243      -37.0476140309  TIP3      6627            0.0000000000
     44796      6827  TIP3      H1             31.5483573959      -20.3737345463      -37.2816233840  TIP3      6627            0.0000000000
     44797      6827  TIP3      H2             31.7992981622      -21.7094271518      -37.9264328523  TIP3      6627            0.0000000000
     44798      6828  TIP3      OH2            19.0094341353      -22.5474401518      -39.5922209314  TIP3      6628            0.0000000000
     44799      6828  TIP3      H1             18.9237955668      -23.0158151226      -38.7327732111  TIP3      6628            0.0000000000
     44800      6828  TIP3      H2             19.8199202479      -22.9304308613      -39.9850174335  TIP3      6628            0.0000000000
     44801      6829  TIP3      OH2            21.0971417620      -23.8417427742      -40.9593346715  TIP3      6629            0.0000000000
     44802      6829  TIP3      H1             20.9215378572      -24.7684253402      -40.7073836863  TIP3      6629            0.0000000000
     44803      6829  TIP3      H2             21.9347588033      -23.6764589717      -40.4810165276  TIP3      6629            0.0000000000
     44804      6830  TIP3      OH2            23.7275533632      -23.3926122763      -40.0948752490  TIP3      6630            0.0000000000
     44805      6830  TIP3      H1             23.8645655552      -24.3315129741      -40.3046464384  TIP3      6630            0.0000000000
     44806      6830  TIP3      H2             23.7280372006      -23.3967105217      -39.1213474060  TIP3      6630            0.0000000000
     44807      6831  TIP3      OH2            27.1059439960      -37.6632437999      -40.9616738219  TIP3      6631            0.0000000000
     44808      6831  TIP3      H1             26.4937906904      -38.3360820499      -40.6276953342  TIP3      6631            0.0000000000
     44809      6831  TIP3      H2             27.7337234671      -38.2107541726      -41.4541788485  TIP3      6631            0.0000000000
     44810      6832  TIP3      OH2            32.3395793565      -38.8474676598      -40.5856064619  TIP3      6632            0.0000000000
     44811      6832  TIP3      H1             32.9383518358      -38.9254369047      -41.3734024201  TIP3      6632            0.0000000000
     44812      6832  TIP3      H2             31.4972918890      -39.1890393291      -40.9491528945  TIP3      6632            0.0000000000
     44813      6833  TIP3      OH2            33.9552649845      -38.4089408790      -42.6142419243  TIP3      6633            0.0000000000
     44814      6833  TIP3      H1             34.6152851195      -39.0492660478      -42.9625451155  TIP3      6633            0.0000000000
     44815      6833  TIP3      H2             34.4632927543      -37.5772981504      -42.5347026760  TIP3      6633            0.0000000000
     44816      6834  TIP3      OH2            19.4435795499      -39.1385022881      -43.0622131092  TIP3      6634            0.0000000000
     44817      6834  TIP3      H1             18.7160394276      -39.3174926376      -43.6792325761  TIP3      6634            0.0000000000
     44818      6834  TIP3      H2             19.9619723876      -39.9584521509      -43.1476334055  TIP3      6634            0.0000000000
     44819      6835  TIP3      OH2            18.2912136537      -39.3289497658      -47.3581257410  TIP3      6635            0.0000000000
     44820      6835  TIP3      H1             18.7532725347      -38.6805139756      -47.9191496507  TIP3      6635            0.0000000000
     44821      6835  TIP3      H2             17.6992221279      -38.7558898714      -46.8524010534  TIP3      6635            0.0000000000
     44822      6836  TIP3      OH2            23.8976314246      -38.7566956181      -43.4469810345  TIP3      6636            0.0000000000
     44823      6836  TIP3      H1             24.8639297821      -38.7199988181      -43.4780124410  TIP3      6636            0.0000000000
     44824      6836  TIP3      H2             23.8753596552      -39.2502058172      -42.6235624145  TIP3      6636            0.0000000000
     44825      6837  TIP3      OH2            29.5095892415      -39.0161232574      -41.4894637155  TIP3      6637            0.0000000000
     44826      6837  TIP3      H1             29.6063062929      -38.9389737373      -42.4541411876  TIP3      6637            0.0000000000
     44827      6837  TIP3      H2             29.3530763821      -39.9754618932      -41.4399855125  TIP3      6637            0.0000000000
     44828      6838  TIP3      OH2            30.9622787796      -39.0335378518      -45.9327603802  TIP3      6638            0.0000000000
     44829      6838  TIP3      H1             30.1974824943      -38.4790113086      -46.1467085408  TIP3      6638            0.0000000000
     44830      6838  TIP3      H2             30.6141756429      -39.9403394513      -45.8764792306  TIP3      6638            0.0000000000
     44831      6839  TIP3      OH2            18.2467574915      -23.3752819051      -46.4319531175  TIP3      6639            0.0000000000
     44832      6839  TIP3      H1             17.5005533315      -23.3917036823      -47.0505070451  TIP3      6639            0.0000000000
     44833      6839  TIP3      H2             18.2059188371      -22.4413790177      -46.1654280465  TIP3      6639            0.0000000000
     44834      6840  TIP3      OH2            20.0554147340      -37.4635915709      -48.8710220083  TIP3      6640            0.0000000000
     44835      6840  TIP3      H1             20.6232933630      -38.0462984480      -49.3741926251  TIP3      6640            0.0000000000
     44836      6840  TIP3      H2             20.6820121456      -37.0796071456      -48.2304288445  TIP3      6640            0.0000000000
     44837      6841  TIP3      OH2            25.2400343474      -37.2002013471      -46.3151924566  TIP3      6641            0.0000000000
     44838      6841  TIP3      H1             25.4938211026      -37.8031015597      -45.5828265621  TIP3      6641            0.0000000000
     44839      6841  TIP3      H2             25.3571899071      -36.3542102219      -45.8128489103  TIP3      6641            0.0000000000
     44840      6842  TIP3      OH2            27.0669932848      -22.0738044394      -48.0150292717  TIP3      6642            0.0000000000
     44841      6842  TIP3      H1             28.0037487078      -21.8230962146      -48.1888849964  TIP3      6642            0.0000000000
     44842      6842  TIP3      H2             26.8819518500      -22.5751453683      -48.8343046412  TIP3      6642            0.0000000000
     44843      6843  TIP3      OH2            33.8124250598      -22.5634228981      -45.3135048401  TIP3      6643            0.0000000000
     44844      6843  TIP3      H1             33.5693612268      -23.3505318060      -45.8545728654  TIP3      6643            0.0000000000
     44845      6843  TIP3      H2             33.6690311581      -21.8231922399      -45.9325593689  TIP3      6643            0.0000000000
     44846      6844  TIP3      OH2            19.3582201761      -38.3261358662      -33.6552997965  TIP3      6644            0.0000000000
     44847      6844  TIP3      H1             18.9949145265      -39.1640090736      -33.2771189332  TIP3      6644            0.0000000000
     44848      6844  TIP3      H2             20.2679243745      -38.5016205187      -33.3477698579  TIP3      6644            0.0000000000
     44849      6845  TIP3      OH2            21.5760515872      -39.0514549053      -31.9093337145  TIP3      6645            0.0000000000
     44850      6845  TIP3      H1             22.3323152708      -39.4270336988      -32.3984385660  TIP3      6645            0.0000000000
     44851      6845  TIP3      H2             21.0211939770      -39.8458595369      -31.7442749103  TIP3      6645            0.0000000000
     44852      6846  TIP3      OH2            20.3481211550      -22.1815244736      -49.0887393296  TIP3      6646            0.0000000000
     44853      6846  TIP3      H1             19.7800819062      -22.1685433180      -48.3138109918  TIP3      6646            0.0000000000
     44854      6846  TIP3      H2             20.8399728970      -23.0126817821      -49.0601801739  TIP3      6646            0.0000000000
     44855      6847  TIP3      OH2            29.9812868797       40.3644436262      -31.8487527888  TIP3      6647            0.0000000000
     44856      6847  TIP3      H1             29.8599097818       39.6542829802      -31.1933173266  TIP3      6647            0.0000000000
     44857      6847  TIP3      H2             30.7415427197       39.9817053921      -32.3125567631  TIP3      6647            0.0000000000
     44858      6848  TIP3      OH2            33.0173050696      -23.8211413243      -33.2132175632  TIP3      6648            0.0000000000
     44859      6848  TIP3      H1             32.2120806004      -23.9597333654      -33.7579151856  TIP3      6648            0.0000000000
     44860      6848  TIP3      H2             32.8949286190      -22.8758488763      -32.9947171627  TIP3      6648            0.0000000000
     44861      6849  TIP3      OH2            38.5574880067      -30.9745711746      -38.0657455798  TIP3      6649            0.0000000000
     44862      6849  TIP3      H1             38.7531720052      -31.7228027510      -37.4560631806  TIP3      6649            0.0000000000
     44863      6849  TIP3      H2             39.4146624425      -30.5192099120      -38.0565056657  TIP3      6649            0.0000000000
     44864      6850  TIP3      OH2           -40.4040841742      -27.0864682089      -39.3077965999  TIP3      6650            0.0000000000
     44865      6850  TIP3      H1            -40.6026440134      -27.6503916891      -40.0838675898  TIP3      6650            0.0000000000
     44866      6850  TIP3      H2            -39.5290174627      -26.8042891864      -39.5916602997  TIP3      6650            0.0000000000
     44867      6851  TIP3      OH2            36.1905960120      -33.0676073927      -44.1739985629  TIP3      6651            0.0000000000
     44868      6851  TIP3      H1             35.8248115485      -32.1613498683      -44.2557632247  TIP3      6651            0.0000000000
     44869      6851  TIP3      H2             35.6427071910      -33.5444469081      -44.8100368608  TIP3      6651            0.0000000000
     44870      6852  TIP3      OH2            36.9515916324      -30.7994875787      -42.0596497892  TIP3      6652            0.0000000000
     44871      6852  TIP3      H1             37.2478623601      -31.5925409819      -41.5911692446  TIP3      6652            0.0000000000
     44872      6852  TIP3      H2             37.6646794591      -30.6503940318      -42.7018462034  TIP3      6652            0.0000000000
     44873      6853  TIP3      OH2            37.4984334959      -33.4778061285      -40.9866763812  TIP3      6653            0.0000000000
     44874      6853  TIP3      H1             38.3351416878      -33.7645184749      -40.5447078529  TIP3      6653            0.0000000000
     44875      6853  TIP3      H2             37.7618045544      -33.6119420273      -41.9210459694  TIP3      6653            0.0000000000
     44876      6854  TIP3      OH2            39.3553090400      -35.4458274166      -39.7062380748  TIP3      6654            0.0000000000
     44877      6854  TIP3      H1             39.7698552229      -34.6903277825      -39.2296355486  TIP3      6654            0.0000000000
     44878      6854  TIP3      H2             39.9752527388      -35.5932553338      -40.4464238715  TIP3      6654            0.0000000000
     44879      6855  TIP3      OH2            36.9453949345      -27.5870712749      -45.8065866158  TIP3      6655            0.0000000000
     44880      6855  TIP3      H1             36.6706322256      -27.2709498552      -46.6812739715  TIP3      6655            0.0000000000
     44881      6855  TIP3      H2             37.0246192477      -26.7349376297      -45.3292780789  TIP3      6655            0.0000000000
     44882      6856  TIP3      OH2            38.9703865309      -30.5249991320      -35.2534368846  TIP3      6656            0.0000000000
     44883      6856  TIP3      H1             39.2185026190      -29.7981959065      -34.6464492518  TIP3      6656            0.0000000000
     44884      6856  TIP3      H2             38.1263204408      -30.2383596379      -35.6259674518  TIP3      6656            0.0000000000
     44885      6857  TIP3      OH2            36.1789786767      -28.3623756711      -36.3453462067  TIP3      6657            0.0000000000
     44886      6857  TIP3      H1             35.7911930455      -28.4556476477      -37.2309215824  TIP3      6657            0.0000000000
     44887      6857  TIP3      H2             36.3212226367      -29.3153182096      -36.1537360156  TIP3      6657            0.0000000000
     44888      6858  TIP3      OH2            36.0518885813      -25.6383930686      -39.5716346265  TIP3      6658            0.0000000000
     44889      6858  TIP3      H1             37.0013454671      -25.8071488413      -39.5739111611  TIP3      6658            0.0000000000
     44890      6858  TIP3      H2             35.9020929936      -24.8348836993      -39.0700371563  TIP3      6658            0.0000000000
     44891      6859  TIP3      OH2            39.0311320211      -23.2588669807      -43.5675206055  TIP3      6659            0.0000000000
     44892      6859  TIP3      H1             39.3279518550      -23.2516540864      -42.6364942974  TIP3      6659            0.0000000000
     44893      6859  TIP3      H2             38.0803664942      -23.3033874079      -43.5458021716  TIP3      6659            0.0000000000
     44894      6860  TIP3      OH2            38.4605499881      -26.9864911636      -35.3849393614  TIP3      6660            0.0000000000
     44895      6860  TIP3      H1             38.7721939742      -27.4528484704      -34.5777945669  TIP3      6660            0.0000000000
     44896      6860  TIP3      H2             37.6719892908      -27.4918067387      -35.6549969441  TIP3      6660            0.0000000000
     44897      6861  TIP3      OH2            38.8985646397      -33.3445039045      -36.5154118702  TIP3      6661            0.0000000000
     44898      6861  TIP3      H1             38.9713784073      -33.0068366047      -35.6144286372  TIP3      6661            0.0000000000
     44899      6861  TIP3      H2             38.5285183582      -34.2203337280      -36.3577669872  TIP3      6661            0.0000000000
     44900      6862  TIP3      OH2            35.6185583544      -36.2187245122      -42.5183876508  TIP3      6662            0.0000000000
     44901      6862  TIP3      H1             36.3998696460      -36.3504240366      -41.9546500188  TIP3      6662            0.0000000000
     44902      6862  TIP3      H2             35.9784877704      -36.6214136489      -43.3434069563  TIP3      6662            0.0000000000
     44903      6863  TIP3      OH2            36.8262039608      -35.5631065000      -47.1541227851  TIP3      6663            0.0000000000
     44904      6863  TIP3      H1             37.3223299124      -34.9572160306      -47.7519614368  TIP3      6663            0.0000000000
     44905      6863  TIP3      H2             36.1522357069      -34.9255549230      -46.8487115037  TIP3      6663            0.0000000000
     44906      6864  TIP3      OH2            38.5184281117      -34.3086910396      -43.5231932054  TIP3      6664            0.0000000000
     44907      6864  TIP3      H1             37.6463955182      -34.2738158358      -43.9307047411  TIP3      6664            0.0000000000
     44908      6864  TIP3      H2             38.8957968671      -35.1938049570      -43.7282480472  TIP3      6664            0.0000000000
     44909      6865  TIP3      OH2            39.0115967623      -28.5377912882      -33.2443812488  TIP3      6665            0.0000000000
     44910      6865  TIP3      H1             39.6254036640      -28.3829354900      -32.5414670983  TIP3      6665            0.0000000000
     44911      6865  TIP3      H2             38.2003713122      -28.4679763095      -32.6962602639  TIP3      6665            0.0000000000
     44912      6866  TIP3      OH2            39.2099902204      -29.2646427448      -40.8318967758  TIP3      6666            0.0000000000
     44913      6866  TIP3      H1             40.0711381712      -29.2617279247      -41.2843086233  TIP3      6666            0.0000000000
     44914      6866  TIP3      H2             39.3718663880      -29.9604269935      -40.1505702833  TIP3      6666            0.0000000000
     44915      6867  TIP3      OH2            36.3656679528      -30.7840060352      -35.2341112911  TIP3      6667            0.0000000000
     44916      6867  TIP3      H1             36.6623037645      -31.2842207697      -34.4472007766  TIP3      6667            0.0000000000
     44917      6867  TIP3      H2             35.8248576902      -31.4463850994      -35.7047729768  TIP3      6667            0.0000000000
     44918      6868  TIP3      OH2            37.6085066181      -30.9963663264      -48.5650715430  TIP3      6668            0.0000000000
     44919      6868  TIP3      H1             38.1567127666      -30.2960852090      -48.1597632118  TIP3      6668            0.0000000000
     44920      6868  TIP3      H2             36.6959684170      -30.6872603004      -48.3422707515  TIP3      6668            0.0000000000
     44921      6869  TIP3      OH2            38.0491085437      -36.1697275923      -35.7556916933  TIP3      6669            0.0000000000
     44922      6869  TIP3      H1             37.1566312901      -35.7978385631      -35.7484134091  TIP3      6669            0.0000000000
     44923      6869  TIP3      H2             37.9601506929      -36.9876062450      -35.2361047301  TIP3      6669            0.0000000000
     44924      6870  TIP3      OH2            37.6789919842      -24.5961846184      -37.1800501566  TIP3      6670            0.0000000000
     44925      6870  TIP3      H1             38.0072570603      -25.5219076550      -37.2169189953  TIP3      6670            0.0000000000
     44926      6870  TIP3      H2             37.9903203031      -24.3198550198      -36.3015483786  TIP3      6670            0.0000000000
     44927      6871  TIP3      OH2            38.9371001217      -29.0424911609      -47.1848309091  TIP3      6671            0.0000000000
     44928      6871  TIP3      H1             38.3093910025      -28.7114093943      -46.5048132744  TIP3      6671            0.0000000000
     44929      6871  TIP3      H2             39.4270963927      -28.2370455668      -47.3441253413  TIP3      6671            0.0000000000
     44930      6872  TIP3      OH2            39.2877325550      -26.2501195935      -48.0311384316  TIP3      6672            0.0000000000
     44931      6872  TIP3      H1             40.0552050765      -25.7099625373      -47.8422386322  TIP3      6672            0.0000000000
     44932      6872  TIP3      H2             39.7046587421      -26.7581921145      -48.7763496735  TIP3      6672            0.0000000000
     44933      6873  TIP3      OH2            37.8206910091      -33.7436360609      -48.8358247263  TIP3      6673            0.0000000000
     44934      6873  TIP3      H1             37.8772464812      -32.7717548528      -48.9067957511  TIP3      6673            0.0000000000
     44935      6873  TIP3      H2             37.0915382884      -33.9438255136      -49.4457941207  TIP3      6673            0.0000000000
     44936      6874  TIP3      OH2            38.7014142306      -38.8495800684      -40.3334662894  TIP3      6674            0.0000000000
     44937      6874  TIP3      H1             38.5600805120      -38.8599585099      -41.3112551699  TIP3      6674            0.0000000000
     44938      6874  TIP3      H2             38.5253739212      -39.7644954683      -40.1573858781  TIP3      6674            0.0000000000
     44939      6875  TIP3      OH2            37.4810053667      -25.1628885928      -44.3231247982  TIP3      6675            0.0000000000
     44940      6875  TIP3      H1             36.7309195027      -24.5576708969      -44.2827957376  TIP3      6675            0.0000000000
     44941      6875  TIP3      H2             38.1426421584      -24.6230030502      -44.8046660717  TIP3      6675            0.0000000000
     44942      6876  TIP3      OH2            36.8743920096      -22.3989491939      -32.9412214139  TIP3      6676            0.0000000000
     44943      6876  TIP3      H1             37.4559771203      -22.5847198922      -32.1696203029  TIP3      6676            0.0000000000
     44944      6876  TIP3      H2             36.4212796654      -23.2549653908      -33.0706450867  TIP3      6676            0.0000000000
     44945      6877  TIP3      OH2            36.7750329305      -28.6172432075      -31.9229540144  TIP3      6677            0.0000000000
     44946      6877  TIP3      H1             36.9560822223      -29.5219270091      -32.2365064654  TIP3      6677            0.0000000000
     44947      6877  TIP3      H2             36.0157361252      -28.3611707971      -32.4766990090  TIP3      6677            0.0000000000
     44948      6878  TIP3      OH2            37.6972094796      -31.3628862118      -32.5098494488  TIP3      6678            0.0000000000
     44949      6878  TIP3      H1             38.0174801933      -32.2574450993      -32.6635421611  TIP3      6678            0.0000000000
     44950      6878  TIP3      H2             37.4259166166      -31.3948531206      -31.5808204096  TIP3      6678            0.0000000000
     44951      6879  TIP3      OH2            38.4299353355      -35.9794795884      -32.4058809403  TIP3      6679            0.0000000000
     44952      6879  TIP3      H1             38.6721013388      -36.7071091929      -33.0202539056  TIP3      6679            0.0000000000
     44953      6879  TIP3      H2             38.4536673157      -36.4077192258      -31.5317075270  TIP3      6679            0.0000000000
     44954      6880  TIP3      OH2            36.7904500349      -26.7614504930      -48.6443061065  TIP3      6680            0.0000000000
     44955      6880  TIP3      H1             37.7457179520      -26.6324593235      -48.4678248357  TIP3      6680            0.0000000000
     44956      6880  TIP3      H2             36.8606431973      -27.3656526223      -49.3925779341  TIP3      6680            0.0000000000
     44957      6881  TIP3      OH2            35.5280992689      -21.3712200988      -43.7533762466  TIP3      6681            0.0000000000
     44958      6881  TIP3      H1             34.8207395636      -21.8606379493      -44.2278773066  TIP3      6681            0.0000000000
     44959      6881  TIP3      H2             35.8136814595      -22.0272940180      -43.0932746085  TIP3      6681            0.0000000000
     44960      6882  TIP3      OH2            36.3852751225      -23.2530898178      -41.9010489189  TIP3      6682            0.0000000000
     44961      6882  TIP3      H1             36.0185579352      -24.1254980267      -41.6976343084  TIP3      6682            0.0000000000
     44962      6882  TIP3      H2             36.5988372762      -22.8963873052      -41.0236300787  TIP3      6682            0.0000000000
     44963      6883  TIP3      OH2            36.4405444864      -30.2077076668      -39.4045503878  TIP3      6683            0.0000000000
     44964      6883  TIP3      H1             36.6390886478      -30.2261969477      -40.3631522691  TIP3      6683            0.0000000000
     44965      6883  TIP3      H2             37.3458713122      -30.3313077598      -39.0294307737  TIP3      6683            0.0000000000
     44966      6884  TIP3      OH2            36.0308018168      -34.8493261910      -33.2465026909  TIP3      6684            0.0000000000
     44967      6884  TIP3      H1             36.9562718510      -35.0895452975      -33.0364599877  TIP3      6684            0.0000000000
     44968      6884  TIP3      H2             35.5807821324      -35.6742427520      -32.9914389871  TIP3      6684            0.0000000000
     44969      6885  TIP3      OH2            37.2660738128      -36.6798943698      -40.3766344938  TIP3      6685            0.0000000000
     44970      6885  TIP3      H1             37.8153187756      -37.4764780460      -40.1740953731  TIP3      6685            0.0000000000
     44971      6885  TIP3      H2             37.9551326664      -36.0256543665      -40.0921858713  TIP3      6685            0.0000000000
     44972      6886  TIP3      OH2            35.5247591699      -33.3300656846      -39.3169846862  TIP3      6686            0.0000000000
     44973      6886  TIP3      H1             36.1303481452      -33.4252486319      -40.0736100634  TIP3      6686            0.0000000000
     44974      6886  TIP3      H2             35.9953991466      -32.5613304759      -38.9453620514  TIP3      6686            0.0000000000
     44975      6887  TIP3      OH2            35.9017819913      -37.2842502270      -45.2441694912  TIP3      6687            0.0000000000
     44976      6887  TIP3      H1             34.9633212938      -37.1261856917      -45.4340891529  TIP3      6687            0.0000000000
     44977      6887  TIP3      H2             36.3212954248      -36.8346834381      -46.0092959810  TIP3      6687            0.0000000000
     44978      6888  TIP3      OH2            35.8789898243      -38.6709700887      -37.0693482720  TIP3      6688            0.0000000000
     44979      6888  TIP3      H1             35.2825398463      -38.7413347313      -36.2893771973  TIP3      6688            0.0000000000
     44980      6888  TIP3      H2             35.4208099339      -37.9633248626      -37.5600446301  TIP3      6688            0.0000000000
     44981      6889  TIP3      OH2            38.0925862780      -25.4546367688      -32.7983220994  TIP3      6689            0.0000000000
     44982      6889  TIP3      H1             37.2739807409      -25.2798858091      -33.2912288787  TIP3      6689            0.0000000000
     44983      6889  TIP3      H2             37.7500005800      -25.5038666382      -31.9055144902  TIP3      6689            0.0000000000
     44984      6890  TIP3      OH2            38.3543154740      -20.9968737431      -36.3035116839  TIP3      6690            0.0000000000
     44985      6890  TIP3      H1             37.6168143409      -20.5553078490      -36.7739284623  TIP3      6690            0.0000000000
     44986      6890  TIP3      H2             37.9895700348      -21.3419897443      -35.4790561806  TIP3      6690            0.0000000000
     44987      6891  TIP3      OH2            37.8848532990      -22.5797020163      -39.7050121971  TIP3      6691            0.0000000000
     44988      6891  TIP3      H1             37.7475838078      -23.2587677941      -39.0424743922  TIP3      6691            0.0000000000
     44989      6891  TIP3      H2             38.7213676758      -22.8596505821      -40.1077726127  TIP3      6691            0.0000000000
     44990      6892  TIP3      OH2            38.1218670020      -38.9821755887      -43.0740937680  TIP3      6692            0.0000000000
     44991      6892  TIP3      H1             37.5044994581      -39.3531700932      -43.7077150654  TIP3      6692            0.0000000000
     44992      6892  TIP3      H2             38.7999471553      -39.7083964496      -43.0237066981  TIP3      6692            0.0000000000
     44993      6893  TIP3      OH2            37.1432300521      -39.3294279272      -47.3386090388  TIP3      6693            0.0000000000
     44994      6893  TIP3      H1             37.6216432602      -38.7129810973      -47.9399840996  TIP3      6693            0.0000000000
     44995      6893  TIP3      H2             36.5608926968      -38.7285409579      -46.8545377305  TIP3      6693            0.0000000000
     44996      6894  TIP3      OH2            37.0787317342      -23.3699275802      -46.4356121345  TIP3      6694            0.0000000000
     44997      6894  TIP3      H1             36.3541637745      -23.3692613584      -47.0791958954  TIP3      6694            0.0000000000
     44998      6894  TIP3      H2             37.0494156443      -22.4468391870      -46.1503162979  TIP3      6694            0.0000000000
     44999      6895  TIP3      OH2            38.9631298208      -37.5228083506      -48.7324853051  TIP3      6695            0.0000000000
     45000      6895  TIP3      H1             39.4843449683      -37.9144285038      -49.4542962663  TIP3      6695            0.0000000000
     45001      6895  TIP3      H2             39.6245930754      -36.9887049708      -48.2815009163  TIP3      6695            0.0000000000
     45002      6896  TIP3      OH2            38.2532233630      -38.3586398418      -33.6738526842  TIP3      6696            0.0000000000
     45003      6896  TIP3      H1             37.9127084093      -39.1754371659      -33.2478880305  TIP3      6696            0.0000000000
     45004      6896  TIP3      H2             39.1689616132      -38.5442391649      -33.4099090807  TIP3      6696            0.0000000000
     45005      6897  TIP3      OH2            39.2016675038      -22.2926978204      -49.1314617730  TIP3      6697            0.0000000000
     45006      6897  TIP3      H1             38.6832702923      -22.1356167964      -48.3286771542  TIP3      6697            0.0000000000
     45007      6897  TIP3      H2             39.7778810622      -23.0419993321      -49.0165147823  TIP3      6697            0.0000000000
     45008      6898  TIP3      OH2           -27.9640788776      -11.0628716324      -43.2565994206  TIP3      6698            0.0000000000
     45009      6898  TIP3      H1            -27.9859800923      -10.0836938476      -43.2773955459  TIP3      6698            0.0000000000
     45010      6898  TIP3      H2            -28.7015998108      -11.3094100992      -43.8372275707  TIP3      6698            0.0000000000
     45011      6899  TIP3      OH2           -29.1363295428      -11.8156669493      -39.7186244470  TIP3      6699            0.0000000000
     45012      6899  TIP3      H1            -29.1007984815      -12.4885778168      -39.0227465302  TIP3      6699            0.0000000000
     45013      6899  TIP3      H2            -29.4393442236      -12.3423767832      -40.4784575434  TIP3      6699            0.0000000000
     45014      6900  TIP3      OH2           -36.6617523207      -12.2049013744      -38.2120268572  TIP3      6700            0.0000000000
     45015      6900  TIP3      H1            -36.6711386669      -12.8461081337      -37.4715167948  TIP3      6700            0.0000000000
     45016      6900  TIP3      H2            -35.9973550839      -11.5720046040      -37.9115072872  TIP3      6700            0.0000000000
     45017      6901  TIP3      OH2           -25.4315943518       -8.8914933996      -41.4517545691  TIP3      6701            0.0000000000
     45018      6901  TIP3      H1            -25.8375930002       -9.5958587715      -40.9467176945  TIP3      6701            0.0000000000
     45019      6901  TIP3      H2            -25.3798591216       -8.1644713283      -40.7961051708  TIP3      6701            0.0000000000
     45020      6902  TIP3      OH2           -35.8381983813       -7.7190893632      -39.6701046836  TIP3      6702            0.0000000000
     45021      6902  TIP3      H1            -36.1300913592       -8.5863336752      -40.0037184114  TIP3      6702            0.0000000000
     45022      6902  TIP3      H2            -34.8802248029       -7.8866858932      -39.6257532925  TIP3      6702            0.0000000000
     45023      6903  TIP3      OH2           -39.0919275591      -14.0727372682      -44.3598070428  TIP3      6703            0.0000000000
     45024      6903  TIP3      H1            -39.6140080087      -13.2696609000      -44.2208929703  TIP3      6703            0.0000000000
     45025      6903  TIP3      H2            -39.7938367433      -14.6948118087      -44.6135451720  TIP3      6703            0.0000000000
     45026      6904  TIP3      OH2           -38.4123439635      -11.8826692426      -41.9709649327  TIP3      6704            0.0000000000
     45027      6904  TIP3      H1            -38.2322475572      -12.7568891170      -41.5813956968  TIP3      6704            0.0000000000
     45028      6904  TIP3      H2            -37.7665977126      -11.8192318578      -42.6909369290  TIP3      6704            0.0000000000
     45029      6905  TIP3      OH2           -28.3242047215       -3.7347214548      -41.2071107308  TIP3      6705            0.0000000000
     45030      6905  TIP3      H1            -27.6454074432       -4.3970018013      -41.4979118511  TIP3      6705            0.0000000000
     45031      6905  TIP3      H2            -28.4982544648       -4.0677630516      -40.3296796471  TIP3      6705            0.0000000000
     45032      6906  TIP3      OH2           -30.7293041195       -9.4385192207      -39.2595093889  TIP3      6706            0.0000000000
     45033      6906  TIP3      H1            -30.3820702132      -10.0703778087      -39.9096239067  TIP3      6706            0.0000000000
     45034      6906  TIP3      H2            -29.9234954520       -9.2738388519      -38.7395997151  TIP3      6706            0.0000000000
     45035      6907  TIP3      OH2           -22.0527093154      -17.8462169348      -38.4976177221  TIP3      6707            0.0000000000
     45036      6907  TIP3      H1            -21.9771952687      -17.1793066351      -37.7855480823  TIP3      6707            0.0000000000
     45037      6907  TIP3      H2            -21.6299831647      -17.3406132760      -39.2071284439  TIP3      6707            0.0000000000
     45038      6908  TIP3      OH2           -27.6940294255      -14.9826237416      -38.8993847279  TIP3      6708            0.0000000000
     45039      6908  TIP3      H1            -27.3593814250      -15.8976428400      -38.9446049657  TIP3      6708            0.0000000000
     45040      6908  TIP3      H2            -27.6182475154      -14.8334245308      -39.8666348453  TIP3      6708            0.0000000000
     45041      6909  TIP3      OH2           -34.4808472799      -16.8651665422      -41.7250667482  TIP3      6709            0.0000000000
     45042      6909  TIP3      H1            -34.3346965960      -16.0416538777      -42.2282112958  TIP3      6709            0.0000000000
     45043      6909  TIP3      H2            -34.8423705615      -17.4509239229      -42.4254250684  TIP3      6709            0.0000000000
     45044      6910  TIP3      OH2           -26.6872177877      -16.8738153514      -43.4523257787  TIP3      6710            0.0000000000
     45045      6910  TIP3      H1            -26.1109969712      -17.0672287232      -42.6756928461  TIP3      6710            0.0000000000
     45046      6910  TIP3      H2            -26.1463715375      -16.2017537890      -43.8800779317  TIP3      6710            0.0000000000
     45047      6911  TIP3      OH2           -37.7957290457      -14.4928830152      -41.0057868567  TIP3      6711            0.0000000000
     45048      6911  TIP3      H1            -37.1171221427      -15.0251856282      -40.5585495602  TIP3      6711            0.0000000000
     45049      6911  TIP3      H2            -37.7091880280      -14.7994955063      -41.9194626621  TIP3      6711            0.0000000000
     45050      6912  TIP3      OH2           -32.6710312939      -12.9108994051      -41.6724725635  TIP3      6712            0.0000000000
     45051      6912  TIP3      H1            -31.9926703480      -13.4916100990      -41.2759565600  TIP3      6712            0.0000000000
     45052      6912  TIP3      H2            -33.1832770266      -13.5678322160      -42.1804607281  TIP3      6712            0.0000000000
     45053      6913  TIP3      OH2           -21.6856582940      -16.3617921432      -36.2475879836  TIP3      6713            0.0000000000
     45054      6913  TIP3      H1            -22.3012584565      -15.6052466557      -36.3758463010  TIP3      6713            0.0000000000
     45055      6913  TIP3      H2            -21.6674507818      -16.4440379110      -35.2892220906  TIP3      6713            0.0000000000
     45056      6914  TIP3      OH2           -35.5408501216      -17.9717158464      -37.6873263542  TIP3      6714            0.0000000000
     45057      6914  TIP3      H1            -35.8179620234      -17.4113947511      -38.4428597929  TIP3      6714            0.0000000000
     45058      6914  TIP3      H2            -36.2315475371      -17.7416601571      -37.0167050426  TIP3      6714            0.0000000000
     45059      6915  TIP3      OH2           -28.2654370875       -8.5007301333      -44.1378916519  TIP3      6715            0.0000000000
     45060      6915  TIP3      H1            -28.5373768203       -8.7826565846      -45.0255862636  TIP3      6715            0.0000000000
     45061      6915  TIP3      H2            -28.5618971652       -7.5613072883      -44.1015169801  TIP3      6715            0.0000000000
     45062      6916  TIP3      OH2           -33.0308377317      -10.3367564745      -37.4512284306  TIP3      6716            0.0000000000
     45063      6916  TIP3      H1            -33.7436535026       -9.7027465106      -37.2229009500  TIP3      6716            0.0000000000
     45064      6916  TIP3      H2            -32.3278975855       -9.7339776644      -37.7400116945  TIP3      6716            0.0000000000
     45065      6917  TIP3      OH2           -24.4945771897      -18.1795102972      -41.4552972227  TIP3      6717            0.0000000000
     45066      6917  TIP3      H1            -25.2051965630      -18.3057682254      -40.8229547273  TIP3      6717            0.0000000000
     45067      6917  TIP3      H2            -24.3371674113      -17.2530536366      -41.1467884513  TIP3      6717            0.0000000000
     45068      6918  TIP3      OH2           -35.9874138574      -16.1372434022      -39.6397711683  TIP3      6718            0.0000000000
     45069      6918  TIP3      H1            -35.3782212435      -15.4319797831      -39.3264648760  TIP3      6718            0.0000000000
     45070      6918  TIP3      H2            -35.4550406018      -16.5253713697      -40.3844173202  TIP3      6718            0.0000000000
     45071      6919  TIP3      OH2           -34.5760303581       -8.3225418368      -36.6391064670  TIP3      6719            0.0000000000
     45072      6919  TIP3      H1            -34.6225527531       -7.4068066043      -36.9645816074  TIP3      6719            0.0000000000
     45073      6919  TIP3      H2            -35.4625032141       -8.4142768642      -36.2120215680  TIP3      6719            0.0000000000
     45074      6920  TIP3      OH2           -38.4545150913       -8.6746571834      -45.8353895638  TIP3      6720            0.0000000000
     45075      6920  TIP3      H1            -38.7971536647       -8.4053497198      -46.6892806181  TIP3      6720            0.0000000000
     45076      6920  TIP3      H2            -38.4591153907       -7.8615476542      -45.3085469212  TIP3      6720            0.0000000000
     45077      6921  TIP3      OH2           -24.8941218255       -7.0466423844      -39.0339427138  TIP3      6721            0.0000000000
     45078      6921  TIP3      H1            -25.8607494487       -6.9176757179      -38.9676398550  TIP3      6721            0.0000000000
     45079      6921  TIP3      H2            -24.6011869551       -6.1564923403      -39.3236569618  TIP3      6721            0.0000000000
     45080      6922  TIP3      OH2           -24.5568110048      -18.7605038506      -37.6652553818  TIP3      6722            0.0000000000
     45081      6922  TIP3      H1            -25.2827324551      -18.1325389347      -37.8023258645  TIP3      6722            0.0000000000
     45082      6922  TIP3      H2            -23.8604245364      -18.3546344228      -38.2228181530  TIP3      6722            0.0000000000
     45083      6923  TIP3      OH2           -31.6068230860      -20.6434321993      -40.2224599023  TIP3      6723            0.0000000000
     45084      6923  TIP3      H1            -31.7477684466      -21.6053059709      -40.2992951168  TIP3      6723            0.0000000000
     45085      6923  TIP3      H2            -32.4852781422      -20.3373609390      -39.9164949114  TIP3      6723            0.0000000000
     45086      6924  TIP3      OH2           -26.6634673434       -5.2540393937      -42.5121096849  TIP3      6724            0.0000000000
     45087      6924  TIP3      H1            -26.1732589721       -5.9728967216      -42.9654081626  TIP3      6724            0.0000000000
     45088      6924  TIP3      H2            -26.1710544808       -4.4774356718      -42.8503232024  TIP3      6724            0.0000000000
     45089      6925  TIP3      OH2           -25.4442565311       -7.3448754898      -43.9429606817  TIP3      6725            0.0000000000
     45090      6925  TIP3      H1            -25.7071563326       -8.0353076611      -44.5714960721  TIP3      6725            0.0000000000
     45091      6925  TIP3      H2            -25.3728124706       -7.8412615288      -43.1094001708  TIP3      6725            0.0000000000
     45092      6926  TIP3      OH2           -23.8025111523       -8.7400433001      -35.4776623613  TIP3      6726            0.0000000000
     45093      6926  TIP3      H1            -23.6585617018       -9.4014894804      -36.1902438713  TIP3      6726            0.0000000000
     45094      6926  TIP3      H2            -23.5980643802       -7.8977100339      -35.9229742657  TIP3      6726            0.0000000000
     45095      6927  TIP3      OH2           -29.3181171054      -11.8217179092      -45.7130492322  TIP3      6727            0.0000000000
     45096      6927  TIP3      H1            -30.0142705963      -11.2429749258      -46.0826040174  TIP3      6727            0.0000000000
     45097      6927  TIP3      H2            -28.6040309066      -11.7488936113      -46.3744664166  TIP3      6727            0.0000000000
     45098      6928  TIP3      OH2           -29.2064771917      -13.3540403994      -48.6773719217  TIP3      6728            0.0000000000
     45099      6928  TIP3      H1            -28.4885540659      -13.3188149233      -48.0168599642  TIP3      6728            0.0000000000
     45100      6928  TIP3      H2            -28.8735490200      -14.0540171574      -49.2682064055  TIP3      6728            0.0000000000
     45101      6929  TIP3      OH2           -21.9129589744      -12.4182958123      -37.4354647462  TIP3      6729            0.0000000000
     45102      6929  TIP3      H1            -22.5751521163      -11.6975192651      -37.3949450941  TIP3      6729            0.0000000000
     45103      6929  TIP3      H2            -21.4227611242      -12.1942248794      -38.2483182337  TIP3      6729            0.0000000000
     45104      6930  TIP3      OH2           -25.8725007732      -11.6101567075      -44.7803415200  TIP3      6730            0.0000000000
     45105      6930  TIP3      H1            -26.6149606063      -11.4032171763      -44.1620804607  TIP3      6730            0.0000000000
     45106      6930  TIP3      H2            -25.3874737376      -12.2921341435      -44.2851302048  TIP3      6730            0.0000000000
     45107      6931  TIP3      OH2           -25.9390657937      -13.4685001624      -35.6454669308  TIP3      6731            0.0000000000
     45108      6931  TIP3      H1            -25.9286428711      -12.6401993941      -35.1400792418  TIP3      6731            0.0000000000
     45109      6931  TIP3      H2            -26.5489978175      -13.1933544456      -36.3629461075  TIP3      6731            0.0000000000
     45110      6932  TIP3      OH2           -34.2291140459      -10.9701829836      -42.8694607807  TIP3      6732            0.0000000000
     45111      6932  TIP3      H1            -34.5708130217      -11.3602701451      -43.7126899492  TIP3      6732            0.0000000000
     45112      6932  TIP3      H2            -33.6282050948      -11.6745293510      -42.5383755268  TIP3      6732            0.0000000000
     45113      6933  TIP3      OH2           -32.9347848442       -7.6026541140      -40.1923761755  TIP3      6733            0.0000000000
     45114      6933  TIP3      H1            -32.9343198371       -8.1206550029      -41.0060284881  TIP3      6733            0.0000000000
     45115      6933  TIP3      H2            -32.1474834602       -7.9541062510      -39.7374655279  TIP3      6733            0.0000000000
     45116      6934  TIP3      OH2           -33.9110507085      -12.2448277725      -39.2233292113  TIP3      6734            0.0000000000
     45117      6934  TIP3      H1            -33.3625954971      -12.1346666604      -40.0218954487  TIP3      6734            0.0000000000
     45118      6934  TIP3      H2            -33.5494404221      -11.5708091805      -38.6064810550  TIP3      6734            0.0000000000
     45119      6935  TIP3      OH2           -27.5222758502       -6.6692381965      -38.5011309357  TIP3      6735            0.0000000000
     45120      6935  TIP3      H1            -27.7843990391       -6.0265615508      -37.8349607339  TIP3      6735            0.0000000000
     45121      6935  TIP3      H2            -27.7679813032       -7.5219260831      -38.0707581613  TIP3      6735            0.0000000000
     45122      6936  TIP3      OH2           -32.9676899023       -7.8029242822      -34.5218293890  TIP3      6736            0.0000000000
     45123      6936  TIP3      H1            -33.3788332922       -7.0643900951      -34.0310971807  TIP3      6736            0.0000000000
     45124      6936  TIP3      H2            -33.6377846898       -8.0055721035      -35.2169214130  TIP3      6736            0.0000000000
     45125      6937  TIP3      OH2           -27.0207473504      -12.4325144415      -47.1147170749  TIP3      6737            0.0000000000
     45126      6937  TIP3      H1            -26.4453248419      -12.2557720200      -46.3335813307  TIP3      6737            0.0000000000
     45127      6937  TIP3      H2            -26.5358721391      -11.9602973441      -47.8355712509  TIP3      6737            0.0000000000
     45128      6938  TIP3      OH2           -35.9372389293      -11.5582087620      -35.3847564068  TIP3      6738            0.0000000000
     45129      6938  TIP3      H1            -35.9615617804      -10.9426446040      -34.6331400961  TIP3      6738            0.0000000000
     45130      6938  TIP3      H2            -36.9044430215      -11.6287720948      -35.5593473644  TIP3      6738            0.0000000000
     45131      6939  TIP3      OH2           -29.2621234056       -5.7124153127      -43.6636136860  TIP3      6739            0.0000000000
     45132      6939  TIP3      H1            -28.8140676846       -5.4086077071      -42.8603793302  TIP3      6739            0.0000000000
     45133      6939  TIP3      H2            -29.8362837697       -4.9701964489      -43.8825511818  TIP3      6739            0.0000000000
     45134      6940  TIP3      OH2           -34.7166779696       -5.7835575576      -33.7681489815  TIP3      6740            0.0000000000
     45135      6940  TIP3      H1            -34.7758341392       -5.8670706143      -34.7386990223  TIP3      6740            0.0000000000
     45136      6940  TIP3      H2            -35.6482125196       -5.8920864768      -33.5061060913  TIP3      6740            0.0000000000
     45137      6941  TIP3      OH2           -23.2431438806      -20.7284988786      -47.2729539293  TIP3      6741            0.0000000000
     45138      6941  TIP3      H1            -24.1850460397      -20.6255102755      -46.9917935902  TIP3      6741            0.0000000000
     45139      6941  TIP3      H2            -23.0748126329      -19.8551985587      -47.6659038842  TIP3      6741            0.0000000000
     45140      6942  TIP3      OH2           -35.2757721313      -11.9553284934      -45.2431512938  TIP3      6742            0.0000000000
     45141      6942  TIP3      H1            -35.5769025519      -11.1885871610      -45.7709314176  TIP3      6742            0.0000000000
     45142      6942  TIP3      H2            -35.9281565568      -12.6212169671      -45.4686198788  TIP3      6742            0.0000000000
     45143      6943  TIP3      OH2           -22.1782642570       -6.3276390278      -48.7535306333  TIP3      6743            0.0000000000
     45144      6943  TIP3      H1            -22.0135087747       -5.3741363425      -48.6690064963  TIP3      6743            0.0000000000
     45145      6943  TIP3      H2            -21.2873286131       -6.7033031102      -48.8594054824  TIP3      6743            0.0000000000
     45146      6944  TIP3      OH2           -39.0161747008       -9.5422564006      -36.4724904646  TIP3      6744            0.0000000000
     45147      6944  TIP3      H1            -39.6220541184       -9.5333406009      -37.2323584478  TIP3      6744            0.0000000000
     45148      6944  TIP3      H2            -39.1441392016      -10.4446498633      -36.1662889098  TIP3      6744            0.0000000000
     45149      6945  TIP3      OH2           -38.9422285756       -6.1748914676      -39.8427240868  TIP3      6745            0.0000000000
     45150      6945  TIP3      H1            -38.3147242532       -6.8405381863      -39.5407686495  TIP3      6745            0.0000000000
     45151      6945  TIP3      H2            -39.4599591390       -6.0197475401      -39.0316525527  TIP3      6745            0.0000000000
     45152      6946  TIP3      OH2           -21.1879444826       -6.0878460548      -33.8887556819  TIP3      6746            0.0000000000
     45153      6946  TIP3      H1            -21.3067158599       -7.0489141965      -33.9237645956  TIP3      6746            0.0000000000
     45154      6946  TIP3      H2            -22.0629277351       -5.8425348511      -33.5074733222  TIP3      6746            0.0000000000
     45155      6947  TIP3      OH2           -30.2319323940       -6.5520111396      -35.0351970739  TIP3      6747            0.0000000000
     45156      6947  TIP3      H1            -30.1737591522       -5.7099437985      -34.5257783153  TIP3      6747            0.0000000000
     45157      6947  TIP3      H2            -31.1041208105       -6.9112480592      -34.7830532533  TIP3      6747            0.0000000000
     45158      6948  TIP3      OH2           -29.8125702438       -2.8086183060      -45.2417704889  TIP3      6748            0.0000000000
     45159      6948  TIP3      H1            -29.8598768628       -2.8794623912      -46.2085171737  TIP3      6748            0.0000000000
     45160      6948  TIP3      H2            -29.7686509192       -1.8508253861      -45.0742308171  TIP3      6748            0.0000000000
     45161      6949  TIP3      OH2           -36.1548016407       -3.9122542073      -43.4130739844  TIP3      6749            0.0000000000
     45162      6949  TIP3      H1            -35.9921413000       -4.3395556490      -42.5460086762  TIP3      6749            0.0000000000
     45163      6949  TIP3      H2            -36.9732214552       -4.3541081200      -43.6730732517  TIP3      6749            0.0000000000
     45164      6950  TIP3      OH2           -26.8525530914       -3.5284283803      -48.2212944198  TIP3      6750            0.0000000000
     45165      6950  TIP3      H1            -26.3539712672       -4.2652792093      -48.6633754820  TIP3      6750            0.0000000000
     45166      6950  TIP3      H2            -26.7072208927       -3.8263103516      -47.3085492531  TIP3      6750            0.0000000000
     45167      6951  TIP3      OH2           -27.0783855620       -3.6573322178      -45.4667195762  TIP3      6751            0.0000000000
     45168      6951  TIP3      H1            -28.0323189195       -3.5993605120      -45.2861384343  TIP3      6751            0.0000000000
     45169      6951  TIP3      H2            -26.7974604931       -4.3860089334      -44.8892574306  TIP3      6751            0.0000000000
     45170      6952  TIP3      OH2           -24.0603010417      -14.6256296935      -33.3924302834  TIP3      6752            0.0000000000
     45171      6952  TIP3      H1            -24.5087580538      -14.1751485571      -34.1308273626  TIP3      6752            0.0000000000
     45172      6952  TIP3      H2            -24.0540519186      -15.5393798411      -33.7175724959  TIP3      6752            0.0000000000
     45173      6953  TIP3      OH2           -36.9244769030       -8.1780840076      -35.4262357553  TIP3      6753            0.0000000000
     45174      6953  TIP3      H1            -36.7298850123       -8.5750395271      -34.5530870530  TIP3      6753            0.0000000000
     45175      6953  TIP3      H2            -37.7878950414       -8.5954668697      -35.6558985195  TIP3      6753            0.0000000000
     45176      6954  TIP3      OH2           -34.2072175446      -19.7287971738      -39.4771518095  TIP3      6754            0.0000000000
     45177      6954  TIP3      H1            -35.1158610034      -19.8620773959      -39.8372591116  TIP3      6754            0.0000000000
     45178      6954  TIP3      H2            -34.3518650544      -18.9051297531      -38.9850928754  TIP3      6754            0.0000000000
     45179      6955  TIP3      OH2           -29.5765041885      -20.0776194030      -36.1132098304  TIP3      6755            0.0000000000
     45180      6955  TIP3      H1            -29.1845592241      -20.4981799023      -35.3252818007  TIP3      6755            0.0000000000
     45181      6955  TIP3      H2            -30.5479994384      -20.1894546682      -35.9645582432  TIP3      6755            0.0000000000
     45182      6956  TIP3      OH2           -26.2848482103      -16.2198305865      -35.1795434565  TIP3      6756            0.0000000000
     45183      6956  TIP3      H1            -26.8686209491      -16.4345878466      -34.4149451878  TIP3      6756            0.0000000000
     45184      6956  TIP3      H2            -26.4762044667      -15.3054444119      -35.4503417879  TIP3      6756            0.0000000000
     45185      6957  TIP3      OH2           -25.2907913902      -11.5218580467      -48.9175221890  TIP3      6757            0.0000000000
     45186      6957  TIP3      H1            -25.4305651618      -11.6516036481      -49.8706987562  TIP3      6757            0.0000000000
     45187      6957  TIP3      H2            -24.5197094754      -10.9385150695      -49.0556081351  TIP3      6757            0.0000000000
     45188      6958  TIP3      OH2           -29.9042574522      -17.4732970995      -48.7678301490  TIP3      6758            0.0000000000
     45189      6958  TIP3      H1            -30.2534172047      -17.5509290640      -47.8564603052  TIP3      6758            0.0000000000
     45190      6958  TIP3      H2            -30.2096560347      -18.3272362582      -49.0990987033  TIP3      6758            0.0000000000
     45191      6959  TIP3      OH2           -34.0948262332      -14.7788250331      -38.2181668514  TIP3      6759            0.0000000000
     45192      6959  TIP3      H1            -34.8286329033      -14.7848852794      -37.5734967936  TIP3      6759            0.0000000000
     45193      6959  TIP3      H2            -34.1705875836      -13.8674397795      -38.5848472501  TIP3      6759            0.0000000000
     45194      6960  TIP3      OH2           -34.1532449722      -14.6537954682      -43.3523017380  TIP3      6760            0.0000000000
     45195      6960  TIP3      H1            -35.0908606941      -14.8951128562      -43.4894959483  TIP3      6760            0.0000000000
     45196      6960  TIP3      H2            -33.7822339270      -14.9388990134      -44.2098999792  TIP3      6760            0.0000000000
     45197      6961  TIP3      OH2           -28.6478806953      -14.1593920170      -44.6260843124  TIP3      6761            0.0000000000
     45198      6961  TIP3      H1            -29.0187937858      -13.3144416198      -44.9521333941  TIP3      6761            0.0000000000
     45199      6961  TIP3      H2            -27.9262695473      -14.3158901679      -45.2546018750  TIP3      6761            0.0000000000
     45200      6962  TIP3      OH2           -29.5858377210      -13.9369284582      -33.1478583419  TIP3      6762            0.0000000000
     45201      6962  TIP3      H1            -30.1096866138      -14.7139507602      -32.8382152859  TIP3      6762            0.0000000000
     45202      6962  TIP3      H2            -28.7473731668      -14.0573244378      -32.6720414691  TIP3      6762            0.0000000000
     45203      6963  TIP3      OH2           -28.0611741000      -14.6338053213      -41.8473511927  TIP3      6763            0.0000000000
     45204      6963  TIP3      H1            -27.8703436624      -14.0460738023      -42.5772765824  TIP3      6763            0.0000000000
     45205      6963  TIP3      H2            -27.5089009737      -15.4122847001      -42.0984521137  TIP3      6763            0.0000000000
     45206      6964  TIP3      OH2           -36.4423165538      -14.5288084874      -36.5352490872  TIP3      6764            0.0000000000
     45207      6964  TIP3      H1            -36.4529735531      -14.0936622731      -35.6659670980  TIP3      6764            0.0000000000
     45208      6964  TIP3      H2            -36.9407347122      -15.3401809453      -36.3413798359  TIP3      6764            0.0000000000
     45209      6965  TIP3      OH2           -33.1001237247      -17.1322070576      -49.6742586034  TIP3      6765            0.0000000000
     45210      6965  TIP3      H1            -33.5412816829      -17.5366922856      -48.9004793128  TIP3      6765            0.0000000000
     45211      6965  TIP3      H2            -33.8186493565      -16.7393486097      -50.1731251091  TIP3      6765            0.0000000000
     45212      6966  TIP3      OH2           -39.7943850139      -17.3967492989      -42.5995757926  TIP3      6766            0.0000000000
     45213      6966  TIP3      H1            -39.1429196989      -17.5024358284      -41.8808538011  TIP3      6766            0.0000000000
     45214      6966  TIP3      H2            -39.3895491179      -17.8736479773      -43.3363881136  TIP3      6766            0.0000000000
     45215      6967  TIP3      OH2           -38.5665924865      -16.6311548027      -47.2101968026  TIP3      6767            0.0000000000
     45216      6967  TIP3      H1            -38.0257484521      -16.0284710322      -47.7521566084  TIP3      6767            0.0000000000
     45217      6967  TIP3      H2            -39.2638967956      -16.0466276640      -46.9058117433  TIP3      6767            0.0000000000
     45218      6968  TIP3      OH2           -28.4078962162      -13.0674804397      -37.1796271446  TIP3      6768            0.0000000000
     45219      6968  TIP3      H1            -28.0295198902      -13.7528753531      -37.7788935384  TIP3      6768            0.0000000000
     45220      6968  TIP3      H2            -28.8724842840      -13.6136135547      -36.5230930259  TIP3      6768            0.0000000000
     45221      6969  TIP3      OH2           -31.6000309894      -17.0945619559      -42.3513057597  TIP3      6769            0.0000000000
     45222      6969  TIP3      H1            -32.5334142570      -17.0913254940      -42.0542834959  TIP3      6769            0.0000000000
     45223      6969  TIP3      H2            -31.1017933744      -17.2557167895      -41.5318302104  TIP3      6769            0.0000000000
     45224      6970  TIP3      OH2           -36.7877340996      -15.5468602289      -43.4781874128  TIP3      6770            0.0000000000
     45225      6970  TIP3      H1            -37.6694509618      -15.3864719948      -43.8579561038  TIP3      6770            0.0000000000
     45226      6970  TIP3      H2            -36.5383356534      -16.4015957284      -43.8707629169  TIP3      6770            0.0000000000
     45227      6971  TIP3      OH2           -33.1406675748      -15.4929739526      -45.8334319146  TIP3      6771            0.0000000000
     45228      6971  TIP3      H1            -32.1828648176      -15.3927844552      -45.6595758206  TIP3      6771            0.0000000000
     45229      6971  TIP3      H2            -33.3767022757      -14.8312459487      -46.5147563309  TIP3      6771            0.0000000000
     45230      6972  TIP3      OH2           -27.1982165851      -17.9594209864      -39.0779670930  TIP3      6772            0.0000000000
     45231      6972  TIP3      H1            -27.8914807640      -17.7963778889      -38.4125265687  TIP3      6772            0.0000000000
     45232      6972  TIP3      H2            -27.6798435463      -18.0707989551      -39.9075545672  TIP3      6772            0.0000000000
     45233      6973  TIP3      OH2           -34.4036681385      -14.3166694356      -48.2370512538  TIP3      6773            0.0000000000
     45234      6973  TIP3      H1            -34.9997315247      -14.6562261620      -48.9064408389  TIP3      6773            0.0000000000
     45235      6973  TIP3      H2            -33.6056592297      -14.1006438222      -48.7391482091  TIP3      6773            0.0000000000
     45236      6974  TIP3      OH2           -24.0023793677       -2.2123097026      -32.7957393376  TIP3      6774            0.0000000000
     45237      6974  TIP3      H1            -23.7254174398       -1.8571078033      -33.6632592872  TIP3      6774            0.0000000000
     45238      6974  TIP3      H2            -23.2744833874       -1.9024625208      -32.2327523748  TIP3      6774            0.0000000000
     45239      6975  TIP3      OH2           -36.3082832650       -9.7497443252      -33.1960422167  TIP3      6775            0.0000000000
     45240      6975  TIP3      H1            -35.5706852017       -9.5130685160      -32.6026640909  TIP3      6775            0.0000000000
     45241      6975  TIP3      H2            -37.0743444783       -9.6683120397      -32.5957947228  TIP3      6775            0.0000000000
     45242      6976  TIP3      OH2           -30.3942719265      -14.3494865079      -40.4605904660  TIP3      6776            0.0000000000
     45243      6976  TIP3      H1            -29.7148768436      -14.8212070136      -40.9860157106  TIP3      6776            0.0000000000
     45244      6976  TIP3      H2            -30.4393898132      -14.8945159062      -39.6689370996  TIP3      6776            0.0000000000
     45245      6977  TIP3      OH2           -35.3140276714      -18.1884863883      -44.0126062224  TIP3      6777            0.0000000000
     45246      6977  TIP3      H1            -35.6297414669      -19.1128214601      -44.0260754471  TIP3      6777            0.0000000000
     45247      6977  TIP3      H2            -34.5212136771      -18.2664227208      -44.5525190876  TIP3      6777            0.0000000000
     45248      6978  TIP3      OH2           -31.6827849617      -16.0138444423      -38.0386813147  TIP3      6778            0.0000000000
     45249      6978  TIP3      H1            -32.5050259068      -15.4908680222      -37.9597180285  TIP3      6778            0.0000000000
     45250      6978  TIP3      H2            -31.1275750796      -15.6566702930      -37.3205233384  TIP3      6778            0.0000000000
     45251      6979  TIP3      OH2           -31.0840094536       -9.7961656629      -46.3324702725  TIP3      6779            0.0000000000
     45252      6979  TIP3      H1            -31.8888814063      -10.2498237790      -46.6609503359  TIP3      6779            0.0000000000
     45253      6979  TIP3      H2            -31.3099206674       -9.6577667184      -45.3900823622  TIP3      6779            0.0000000000
     45254      6980  TIP3      OH2           -23.9085053959      -10.5978640191      -37.5481291327  TIP3      6780            0.0000000000
     45255      6980  TIP3      H1            -23.3456020044      -10.1016600243      -38.1708981055  TIP3      6780            0.0000000000
     45256      6980  TIP3      H2            -24.7701977672      -10.5614712429      -38.0148561724  TIP3      6780            0.0000000000
     45257      6981  TIP3      OH2           -27.3092270081      -16.9512708748      -48.0131754224  TIP3      6781            0.0000000000
     45258      6981  TIP3      H1            -28.2266662688      -16.7950686723      -48.2799981845  TIP3      6781            0.0000000000
     45259      6981  TIP3      H2            -26.9549518509      -16.0576855414      -47.8352045639  TIP3      6781            0.0000000000
     45260      6982  TIP3      OH2           -29.6024713429       -9.5164774961      -35.0984004501  TIP3      6782            0.0000000000
     45261      6982  TIP3      H1            -29.9533719271       -9.9483578425      -34.3128855301  TIP3      6782            0.0000000000
     45262      6982  TIP3      H2            -29.8608607571       -8.5957289005      -34.9916174183  TIP3      6782            0.0000000000
     45263      6983  TIP3      OH2           -26.5278679304      -15.0167633617      -46.4896445855  TIP3      6783            0.0000000000
     45264      6983  TIP3      H1            -25.6450316216      -15.2014601462      -46.0995191051  TIP3      6783            0.0000000000
     45265      6983  TIP3      H2            -26.4123076991      -14.2261778865      -47.0402896660  TIP3      6783            0.0000000000
     45266      6984  TIP3      OH2           -35.9783856396      -10.3850275070      -40.5413036310  TIP3      6784            0.0000000000
     45267      6984  TIP3      H1            -35.3064668425      -10.4698366622      -41.2411480598  TIP3      6784            0.0000000000
     45268      6984  TIP3      H2            -35.9203057784      -11.2521213042      -40.1017646816  TIP3      6784            0.0000000000
     45269      6985  TIP3      OH2           -28.9531949221       -8.3147188791      -47.2967021284  TIP3      6785            0.0000000000
     45270      6985  TIP3      H1            -29.3286763145       -7.4743629315      -46.9657471809  TIP3      6785            0.0000000000
     45271      6985  TIP3      H2            -29.7089817089       -8.9165949355      -47.1242689392  TIP3      6785            0.0000000000
     45272      6986  TIP3      OH2           -38.4565346555      -12.3715305668      -35.3892734086  TIP3      6786            0.0000000000
     45273      6986  TIP3      H1            -38.6629359514      -12.4491851431      -34.4351342622  TIP3      6786            0.0000000000
     45274      6986  TIP3      H2            -39.3893851440      -12.4611579089      -35.6943001798  TIP3      6786            0.0000000000
     45275      6987  TIP3      OH2           -31.9818539140      -12.4265991228      -33.1101317190  TIP3      6787            0.0000000000
     45276      6987  TIP3      H1            -32.3038571172      -12.7411818154      -33.9676362182  TIP3      6787            0.0000000000
     45277      6987  TIP3      H2            -31.0611440631      -12.7557294124      -33.1101462140  TIP3      6787            0.0000000000
     45278      6988  TIP3      OH2           -27.2956438793       -7.0961109756      -35.1484327281  TIP3      6788            0.0000000000
     45279      6988  TIP3      H1            -28.2202001054       -6.9175616008      -35.3849084520  TIP3      6788            0.0000000000
     45280      6988  TIP3      H2            -27.3317131545       -6.8050077528      -34.2169910716  TIP3      6788            0.0000000000
     45281      6989  TIP3      OH2           -21.5961269629      -14.9146731425      -46.7274380539  TIP3      6789            0.0000000000
     45282      6989  TIP3      H1            -22.1773040510      -15.1838588888      -47.4733346594  TIP3      6789            0.0000000000
     45283      6989  TIP3      H2            -21.5385093460      -13.9703402474      -46.9881985587  TIP3      6789            0.0000000000
     45284      6990  TIP3      OH2           -21.6422027921       -9.0530050329      -33.9612455308  TIP3      6790            0.0000000000
     45285      6990  TIP3      H1            -22.5348905308       -8.8314076606      -34.3261859772  TIP3      6790            0.0000000000
     45286      6990  TIP3      H2            -21.0977900765       -9.1052323740      -34.7719261616  TIP3      6790            0.0000000000
     45287      6991  TIP3      OH2           -23.3374058983       -6.1098257191      -46.3801154187  TIP3      6791            0.0000000000
     45288      6991  TIP3      H1            -23.7197394845       -6.9270725079      -46.0487882167  TIP3      6791            0.0000000000
     45289      6991  TIP3      H2            -23.0482846554       -6.3227127117      -47.2828253789  TIP3      6791            0.0000000000
     45290      6992  TIP3      OH2           -26.1629194515      -11.2141093429      -39.1786449712  TIP3      6792            0.0000000000
     45291      6992  TIP3      H1            -27.0834031976      -11.4677317881      -39.3573218531  TIP3      6792            0.0000000000
     45292      6992  TIP3      H2            -25.7164096054      -11.9371367042      -39.6830843685  TIP3      6792            0.0000000000
     45293      6993  TIP3      OH2           -33.6233791135       -6.9381398513      -43.1435877251  TIP3      6793            0.0000000000
     45294      6993  TIP3      H1            -33.1203983815       -6.1366227453      -43.3612784706  TIP3      6793            0.0000000000
     45295      6993  TIP3      H2            -34.5050034561       -6.7024530513      -43.4635938072  TIP3      6793            0.0000000000
     45296      6994  TIP3      OH2           -37.7903712926      -12.2134634472      -48.3672397228  TIP3      6794            0.0000000000
     45297      6994  TIP3      H1            -37.2225634898      -11.4496484457      -48.1407890901  TIP3      6794            0.0000000000
     45298      6994  TIP3      H2            -38.6734380999      -11.8032585841      -48.3298812828  TIP3      6794            0.0000000000
     45299      6995  TIP3      OH2           -32.1891734613       -9.2786812921      -43.6320991205  TIP3      6795            0.0000000000
     45300      6995  TIP3      H1            -32.5125173590       -8.3592110020      -43.5568176936  TIP3      6795            0.0000000000
     45301      6995  TIP3      H2            -32.9134341970       -9.7698564092      -43.1942560103  TIP3      6795            0.0000000000
     45302      6996  TIP3      OH2           -31.7533134092       -5.0856268408      -37.2250131976  TIP3      6796            0.0000000000
     45303      6996  TIP3      H1            -31.2933220178       -4.2859605937      -37.5209885404  TIP3      6796            0.0000000000
     45304      6996  TIP3      H2            -31.1287060513       -5.4337059281      -36.5650794645  TIP3      6796            0.0000000000
     45305      6997  TIP3      OH2           -33.5106185655       -4.2972408308      -44.0583500643  TIP3      6797            0.0000000000
     45306      6997  TIP3      H1            -34.4767400706       -4.1537012736      -43.9647068879  TIP3      6797            0.0000000000
     45307      6997  TIP3      H2            -33.1511257521       -3.4427279079      -43.7547015721  TIP3      6797            0.0000000000
     45308      6998  TIP3      OH2           -28.2363761473       -9.0758917456      -37.5979569949  TIP3      6798            0.0000000000
     45309      6998  TIP3      H1            -28.5534344411       -9.2862499215      -36.6966488211  TIP3      6798            0.0000000000
     45310      6998  TIP3      H2            -27.5953988701       -9.7870425457      -37.7814537311  TIP3      6798            0.0000000000
     45311      6999  TIP3      OH2           -25.9736187412       -8.0561462006      -48.4259439093  TIP3      6799            0.0000000000
     45312      6999  TIP3      H1            -25.6355877537       -8.5506431135      -47.6616173943  TIP3      6799            0.0000000000
     45313      6999  TIP3      H2            -26.9151518270       -8.2465133849      -48.3470072723  TIP3      6799            0.0000000000
     45314      7000  TIP3      OH2           -25.3987104870       -4.5120595161      -35.1275415828  TIP3      6800            0.0000000000
     45315      7000  TIP3      H1            -26.0960062828       -5.0024423856      -35.6028484031  TIP3      6800            0.0000000000
     45316      7000  TIP3      H2            -25.2220078117       -3.8086707940      -35.7885383487  TIP3      6800            0.0000000000
     45317      7001  TIP3      OH2           -21.4113086205       -3.6114728688      -48.3408652667  TIP3      6801            0.0000000000
     45318      7001  TIP3      H1            -20.7037400560       -2.9586198063      -48.4563741734  TIP3      6801            0.0000000000
     45319      7001  TIP3      H2            -22.1300990711       -3.0382235849      -47.9747199869  TIP3      6801            0.0000000000
     45320      7002  TIP3      OH2           -37.3251067137      -17.2192296334      -35.7383030953  TIP3      6802            0.0000000000
     45321      7002  TIP3      H1            -38.2304850489      -16.8815577133      -35.7368517209  TIP3      6802            0.0000000000
     45322      7002  TIP3      H2            -37.4337149150      -18.0906810445      -35.3252443359  TIP3      6802            0.0000000000
     45323      7003  TIP3      OH2           -25.0976883500       -9.3703016789      -46.2765598849  TIP3      6803            0.0000000000
     45324      7003  TIP3      H1            -25.3403342711      -10.1835945991      -45.7953340097  TIP3      6803            0.0000000000
     45325      7003  TIP3      H2            -24.1465003487       -9.3382165573      -46.1064781713  TIP3      6803            0.0000000000
     45326      7004  TIP3      OH2           -37.7422078655       -5.4755267218      -37.3086440966  TIP3      6804            0.0000000000
     45327      7004  TIP3      H1            -37.4227219423       -6.3853500174      -37.3081092069  TIP3      6804            0.0000000000
     45328      7004  TIP3      H2            -37.4875399381       -5.1830701475      -36.4310121452  TIP3      6804            0.0000000000
     45329      7005  TIP3      OH2           -32.9706597238       -7.3983238174      -47.5908113943  TIP3      6805            0.0000000000
     45330      7005  TIP3      H1            -32.7423186152       -7.9419816314      -46.8324379448  TIP3      6805            0.0000000000
     45331      7005  TIP3      H2            -32.9247860295       -6.4802619932      -47.2538843105  TIP3      6805            0.0000000000
     45332      7006  TIP3      OH2           -36.5217130908      -10.1723942717      -47.1719768290  TIP3      6806            0.0000000000
     45333      7006  TIP3      H1            -37.1713586209       -9.7859787703      -46.5436321497  TIP3      6806            0.0000000000
     45334      7006  TIP3      H2            -35.9563062004       -9.3985888198      -47.3564704635  TIP3      6806            0.0000000000
     45335      7007  TIP3      OH2           -28.6302771155      -17.4860492163      -36.7524167524  TIP3      6807            0.0000000000
     45336      7007  TIP3      H1            -27.8770343699      -17.4232745414      -36.1565542754  TIP3      6807            0.0000000000
     45337      7007  TIP3      H2            -28.9941272632      -18.3699553834      -36.5562541419  TIP3      6807            0.0000000000
     45338      7008  TIP3      OH2           -27.8907169281      -17.9263239935      -45.6514017717  TIP3      6808            0.0000000000
     45339      7008  TIP3      H1            -27.6406326510      -17.4621754458      -46.4778748612  TIP3      6808            0.0000000000
     45340      7008  TIP3      H2            -27.2941931066      -17.4795634744      -45.0286759531  TIP3      6808            0.0000000000
     45341      7009  TIP3      OH2           -30.1790585696       -5.7503029894      -46.8961412938  TIP3      6809            0.0000000000
     45342      7009  TIP3      H1            -31.0046378337       -5.2452356298      -46.7982005973  TIP3      6809            0.0000000000
     45343      7009  TIP3      H2            -29.6547813783       -5.2002235629      -47.4878159595  TIP3      6809            0.0000000000
     45344      7010  TIP3      OH2           -30.6244562796      -16.1675163734      -44.8608524381  TIP3      6810            0.0000000000
     45345      7010  TIP3      H1            -29.8441242428      -15.5761710372      -44.8093628831  TIP3      6810            0.0000000000
     45346      7010  TIP3      H2            -30.9007765686      -16.2909401851      -43.9328543536  TIP3      6810            0.0000000000
     45347      7011  TIP3      OH2           -30.0834297522      -15.1329688799      -35.6735294407  TIP3      6811            0.0000000000
     45348      7011  TIP3      H1            -30.0105590230      -14.5798434575      -34.8738279323  TIP3      6811            0.0000000000
     45349      7011  TIP3      H2            -29.4253105134      -15.8333095329      -35.5786866488  TIP3      6811            0.0000000000
     45350      7012  TIP3      OH2           -29.7841650571      -19.1009525985      -43.9749611149  TIP3      6812            0.0000000000
     45351      7012  TIP3      H1            -30.0929610877      -18.4474716087      -43.3241603616  TIP3      6812            0.0000000000
     45352      7012  TIP3      H2            -29.0852073475      -18.5582461733      -44.4196768739  TIP3      6812            0.0000000000
     45353      7013  TIP3      OH2           -32.8480525927       -4.6877565964      -46.8277168257  TIP3      6813            0.0000000000
     45354      7013  TIP3      H1            -32.6087724266       -3.8787047196      -47.3255827809  TIP3      6813            0.0000000000
     45355      7013  TIP3      H2            -33.0515361071       -4.3549371216      -45.9319677393  TIP3      6813            0.0000000000
     45356      7014  TIP3      OH2           -34.1156140741      -17.9690934890      -47.2282924572  TIP3      6814            0.0000000000
     45357      7014  TIP3      H1            -34.1682201014      -17.0804618363      -46.8352779437  TIP3      6814            0.0000000000
     45358      7014  TIP3      H2            -33.2150981175      -18.2378203556      -46.9753388092  TIP3      6814            0.0000000000
     45359      7015  TIP3      OH2           -23.9131039318      -17.2659440599      -34.8426760487  TIP3      6815            0.0000000000
     45360      7015  TIP3      H1            -24.8389652848      -16.9480391102      -34.9626949513  TIP3      6815            0.0000000000
     45361      7015  TIP3      H2            -23.6143772221      -17.2792227764      -35.7706777370  TIP3      6815            0.0000000000
     45362      7016  TIP3      OH2           -25.2968056145      -13.0146831272      -40.8305401464  TIP3      6816            0.0000000000
     45363      7016  TIP3      H1            -25.9986142203      -13.6432233260      -41.1036555522  TIP3      6816            0.0000000000
     45364      7016  TIP3      H2            -24.8284051132      -13.7600925090      -40.3802568135  TIP3      6816            0.0000000000
     45365      7017  TIP3      OH2           -35.7972943586       -7.5992427944      -48.1078205407  TIP3      6817            0.0000000000
     45366      7017  TIP3      H1            -35.1620077941       -6.9043702973      -47.9087494012  TIP3      6817            0.0000000000
     45367      7017  TIP3      H2            -35.3979685479       -7.9682373303      -48.9218234526  TIP3      6817            0.0000000000
     45368      7018  TIP3      OH2           -37.5436248255      -14.8602585097      -48.9954364266  TIP3      6818            0.0000000000
     45369      7018  TIP3      H1            -37.5426302683      -13.8920197098      -48.8566447114  TIP3      6818            0.0000000000
     45370      7018  TIP3      H2            -38.4074137293      -15.0566804653      -49.3761910759  TIP3      6818            0.0000000000
     45371      7019  TIP3      OH2           -24.2843793840       -4.0581184363      -38.9586238374  TIP3      6819            0.0000000000
     45372      7019  TIP3      H1            -24.3338949447       -3.6367271540      -39.8403522922  TIP3      6819            0.0000000000
     45373      7019  TIP3      H2            -23.3184473467       -4.2102610060      -38.9932236715  TIP3      6819            0.0000000000
     45374      7020  TIP3      OH2           -36.6855815354      -20.1071833395      -40.3571271671  TIP3      6820            0.0000000000
     45375      7020  TIP3      H1            -36.9309848431      -20.0929716745      -41.3080708893  TIP3      6820            0.0000000000
     45376      7020  TIP3      H2            -37.1543227132      -20.9270840745      -40.0933182372  TIP3      6820            0.0000000000
     45377      7021  TIP3      OH2           -37.7673155796       -6.1659638329      -44.1870776024  TIP3      6821            0.0000000000
     45378      7021  TIP3      H1            -38.6137555269       -5.7210219548      -44.2519986291  TIP3      6821            0.0000000000
     45379      7021  TIP3      H2            -37.2666235594       -5.7071760564      -44.8729971599  TIP3      6821            0.0000000000
     45380      7022  TIP3      OH2           -38.5443738833       -3.5027493882      -32.8986651091  TIP3      6822            0.0000000000
     45381      7022  TIP3      H1            -37.9494904511       -3.7397443178      -32.1663284104  TIP3      6822            0.0000000000
     45382      7022  TIP3      H2            -38.9884534551       -4.3374879260      -33.0936531993  TIP3      6822            0.0000000000
     45383      7023  TIP3      OH2           -33.8979343115       -4.5984534812      -31.3038798491  TIP3      6823            0.0000000000
     45384      7023  TIP3      H1            -33.1594469486       -5.1198915573      -30.9685798043  TIP3      6823            0.0000000000
     45385      7023  TIP3      H2            -33.9431715709       -4.8983387934      -32.2338979547  TIP3      6823            0.0000000000
     45386      7024  TIP3      OH2           -29.8439009487       -5.1552163927      -49.9786195840  TIP3      6824            0.0000000000
     45387      7024  TIP3      H1            -30.4642144654       -5.8066353917      -49.6366850772  TIP3      6824            0.0000000000
     45388      7024  TIP3      H2            -29.0487039121       -5.6862510057      -50.1149969606  TIP3      6824            0.0000000000
     45389      7025  TIP3      OH2           -27.3950814197       -6.2236669318      -32.5562105823  TIP3      6825            0.0000000000
     45390      7025  TIP3      H1            -27.7098225928       -7.1110850579      -32.2818417536  TIP3      6825            0.0000000000
     45391      7025  TIP3      H2            -26.6254504019       -6.1048218526      -31.9647667032  TIP3      6825            0.0000000000
     45392      7026  TIP3      OH2           -25.6029124857       -5.4633244912      -49.3067607250  TIP3      6826            0.0000000000
     45393      7026  TIP3      H1            -25.0436729982       -6.1863221948      -48.9766533465  TIP3      6826            0.0000000000
     45394      7026  TIP3      H2            -24.9609299205       -5.0146572999      -49.9302644572  TIP3      6826            0.0000000000
     45395      7027  TIP3      OH2           -38.5899150669       -9.8161958907      -31.8236553854  TIP3      6827            0.0000000000
     45396      7027  TIP3      H1            -38.4504553698      -10.7115978178      -32.1939406387  TIP3      6827            0.0000000000
     45397      7027  TIP3      H2            -39.0726581261       -9.3935835607      -32.5416504514  TIP3      6827            0.0000000000
     45398      7028  TIP3      OH2           -34.2296476402       -9.4599051122      -49.8005353204  TIP3      6828            0.0000000000
     45399      7028  TIP3      H1            -34.1519020157      -10.2305569932      -49.2253084050  TIP3      6828            0.0000000000
     45400      7028  TIP3      H2            -33.5545469068       -9.5629477766      -50.4805275251  TIP3      6828            0.0000000000
     45401      7029  TIP3      OH2           -31.9542587379       -9.7667485079      -32.5346308812  TIP3      6829            0.0000000000
     45402      7029  TIP3      H1            -32.2940826117       -9.4529868187      -33.3972964265  TIP3      6829            0.0000000000
     45403      7029  TIP3      H2            -31.8788312916      -10.7435152230      -32.6436526324  TIP3      6829            0.0000000000
     45404      7030  TIP3      OH2           -26.2547536433       -9.9070010418      -35.1398851343  TIP3      6830            0.0000000000
     45405      7030  TIP3      H1            -25.4662598551       -9.3253812236      -35.2028109316  TIP3      6830            0.0000000000
     45406      7030  TIP3      H2            -26.9543671296       -9.2376774012      -35.1122337315  TIP3      6830            0.0000000000
     45407      7031  TIP3      OH2           -37.8012388031      -12.5127537838      -32.5552685368  TIP3      6831            0.0000000000
     45408      7031  TIP3      H1            -37.3362037721      -13.3612176904      -32.6532978710  TIP3      6831            0.0000000000
     45409      7031  TIP3      H2            -37.9923146593      -12.5451994928      -31.6061831709  TIP3      6831            0.0000000000
     45410      7032  TIP3      OH2           -33.1447517178      -11.4119833420      -47.4983203457  TIP3      6832            0.0000000000
     45411      7032  TIP3      H1            -33.6091636157      -11.9137822715      -46.8071700807  TIP3      6832            0.0000000000
     45412      7032  TIP3      H2            -32.7898247392      -12.1286217672      -48.0690234152  TIP3      6832            0.0000000000
     45413      7033  TIP3      OH2           -33.8548263243      -13.5805450762      -35.1805062037  TIP3      6833            0.0000000000
     45414      7033  TIP3      H1            -34.4761116473      -12.8754245865      -34.9264535819  TIP3      6833            0.0000000000
     45415      7033  TIP3      H2            -33.4545583191      -13.2124714346      -35.9886903649  TIP3      6833            0.0000000000
     45416      7034  TIP3      OH2           -31.9409231405      -13.1751206202      -49.1645606632  TIP3      6834            0.0000000000
     45417      7034  TIP3      H1            -32.1718671511      -13.3083850638      -50.0992247707  TIP3      6834            0.0000000000
     45418      7034  TIP3      H2            -30.9660779414      -13.1031684381      -49.1400703993  TIP3      6834            0.0000000000
     45419      7035  TIP3      OH2           -28.7723002528      -11.0141757726      -31.8442941519  TIP3      6835            0.0000000000
     45420      7035  TIP3      H1            -27.8162425303      -11.0297219128      -31.9727445596  TIP3      6835            0.0000000000
     45421      7035  TIP3      H2            -28.9433962310      -11.7840281278      -31.2786857530  TIP3      6835            0.0000000000
     45422      7036  TIP3      OH2           -22.9246987396      -11.1212791302       50.2286902671  TIP3      6836            0.0000000000
     45423      7036  TIP3      H1            -22.8698233545      -11.3515573451       49.3025755851  TIP3      6836            0.0000000000
     45424      7036  TIP3      H2            -22.7269601262      -10.1545931289       50.1268269862  TIP3      6836            0.0000000000
     45425      7037  TIP3      OH2           -33.4270481323      -16.1960813214      -34.1312317857  TIP3      6837            0.0000000000
     45426      7037  TIP3      H1            -33.3254680265      -16.9109159983      -34.7880078738  TIP3      6837            0.0000000000
     45427      7037  TIP3      H2            -33.5155496234      -15.3900377219      -34.6797966566  TIP3      6837            0.0000000000
     45428      7038  TIP3      OH2           -33.0373878070      -17.8264951869      -36.5737375375  TIP3      6838            0.0000000000
     45429      7038  TIP3      H1            -32.5296292760      -17.3588498362      -37.2798543538  TIP3      6838            0.0000000000
     45430      7038  TIP3      H2            -33.9321205060      -17.9004899498      -36.9778021724  TIP3      6838            0.0000000000
     45431      7039  TIP3      OH2           -31.4981878296      -12.3310413678      -36.3296273834  TIP3      6839            0.0000000000
     45432      7039  TIP3      H1            -30.7458772809      -12.5002142152      -36.9023766996  TIP3      6839            0.0000000000
     45433      7039  TIP3      H2            -31.8663707132      -11.5007878245      -36.6696044206  TIP3      6839            0.0000000000
     45434      7040  TIP3      OH2           -27.0986850674      -14.5880916023      -31.3588681023  TIP3      6840            0.0000000000
     45435      7040  TIP3      H1            -26.8694143475      -15.5229036917      -31.4608697976  TIP3      6840            0.0000000000
     45436      7040  TIP3      H2            -26.2321166074      -14.1481018856      -31.3743772218  TIP3      6840            0.0000000000
     45437      7041  TIP3      OH2           -25.7608151909      -11.7872149810      -33.2021939941  TIP3      6841            0.0000000000
     45438      7041  TIP3      H1            -26.0149939905      -11.0675628760      -33.8198805007  TIP3      6841            0.0000000000
     45439      7041  TIP3      H2            -24.8066290157      -11.8218945428      -33.4012231413  TIP3      6841            0.0000000000
     45440      7042  TIP3      OH2           -34.9923292661      -14.9391592416      -32.2108708531  TIP3      6842            0.0000000000
     45441      7042  TIP3      H1            -35.7506469334      -15.5311174816      -32.3782509652  TIP3      6842            0.0000000000
     45442      7042  TIP3      H2            -34.3449761236      -15.3096313516      -32.8382152550  TIP3      6842            0.0000000000
     45443      7043  TIP3      OH2           -32.2516060727      -20.3860603636      -36.1863347817  TIP3      6843            0.0000000000
     45444      7043  TIP3      H1            -32.4370076397      -19.4241952331      -36.2859464489  TIP3      6843            0.0000000000
     45445      7043  TIP3      H2            -32.9985368366      -20.7570908128      -36.6877138573  TIP3      6843            0.0000000000
     45446      7044  TIP3      OH2           -30.9710987413      -16.0624740825      -32.5586234322  TIP3      6844            0.0000000000
     45447      7044  TIP3      H1            -31.2931569219      -16.2915462511      -31.6639843778  TIP3      6844            0.0000000000
     45448      7044  TIP3      H2            -31.7583749348      -16.2611825422      -33.0983806912  TIP3      6844            0.0000000000
     45449      7045  TIP3      OH2           -28.2577892806      -16.9125348096      -33.4605080216  TIP3      6845            0.0000000000
     45450      7045  TIP3      H1            -29.2235455390      -16.8615167628      -33.3570393351  TIP3      6845            0.0000000000
     45451      7045  TIP3      H2            -27.9949994351      -17.5560787780      -32.7744097707  TIP3      6845            0.0000000000
     45452      7046  TIP3      OH2           -26.6768340422      -18.2964070754      -31.5676081992  TIP3      6846            0.0000000000
     45453      7046  TIP3      H1            -26.7235647918      -19.2736516157      -31.5353045491  TIP3      6846            0.0000000000
     45454      7046  TIP3      H2            -26.9239229640      -18.0034606024      -30.6682267798  TIP3      6846            0.0000000000
     45455      7047  TIP3      OH2           -36.7908245058      -17.0424186983      -32.4390806295  TIP3      6847            0.0000000000
     45456      7047  TIP3      H1            -36.6413116727      -17.7839406183      -33.0523580415  TIP3      6847            0.0000000000
     45457      7047  TIP3      H2            -36.9824807749      -17.4838015851      -31.5888032905  TIP3      6847            0.0000000000
     45458      7048  TIP3      OH2           -32.0347774617      -20.9932833438      -33.4851568349  TIP3      6848            0.0000000000
     45459      7048  TIP3      H1            -31.3558725730      -21.6985348543      -33.5012847907  TIP3      6848            0.0000000000
     45460      7048  TIP3      H2            -32.1501939585      -20.8534972439      -34.4456778909  TIP3      6848            0.0000000000
     45461      7049  TIP3      OH2           -31.6733123420      -19.3824563954      -31.3663424660  TIP3      6849            0.0000000000
     45462      7049  TIP3      H1            -31.8468256871      -19.8877111182      -32.1992399378  TIP3      6849            0.0000000000
     45463      7049  TIP3      H2            -32.2717531707      -18.6168644554      -31.4678115934  TIP3      6849            0.0000000000
     45464      7050  TIP3      OH2           -32.2272752065       -2.4519613048      -48.2344596370  TIP3      6850            0.0000000000
     45465      7050  TIP3      H1            -31.2500738653       -2.3842878701      -48.1160061233  TIP3      6850            0.0000000000
     45466      7050  TIP3      H2            -32.3639792860       -1.8140556721      -48.9367233849  TIP3      6850            0.0000000000
     45467      7051  TIP3      OH2           -38.2399197283       -7.8475817542      -48.9320138818  TIP3      6851            0.0000000000
     45468      7051  TIP3      H1            -37.3393493699       -7.8843267864      -48.5386137635  TIP3      6851            0.0000000000
     45469      7051  TIP3      H2            -38.3582753020       -8.6782486595      -49.4071632906  TIP3      6851            0.0000000000
     45470      7052  TIP3      OH2            40.2852892763       -2.2779120403      -43.9489753879  TIP3      6852            0.0000000000
     45471      7052  TIP3      H1             39.5493792765       -2.7900056865      -44.3138162171  TIP3      6852            0.0000000000
     45472      7052  TIP3      H2             40.4421908802       -2.9153096545      -43.2127819399  TIP3      6852            0.0000000000
     45473      7053  TIP3      OH2           -39.0069650168       -4.3453999184      -41.7730840131  TIP3      6853            0.0000000000
     45474      7053  TIP3      H1            -39.2134939958       -5.2858322513      -41.5946544384  TIP3      6853            0.0000000000
     45475      7053  TIP3      H2            -38.6742392726       -4.0600904093      -40.8917164402  TIP3      6853            0.0000000000
     45476      7054  TIP3      OH2           -21.4726271196       -3.5979818407      -38.9043339691  TIP3      6854            0.0000000000
     45477      7054  TIP3      H1            -21.4769423180       -3.3885893585      -37.9645764965  TIP3      6854            0.0000000000
     45478      7054  TIP3      H2            -20.8244543962       -2.9865187325      -39.2657779569  TIP3      6854            0.0000000000
     45479      7055  TIP3      OH2           -21.9360103382       -3.9883833499      -35.9692181282  TIP3      6855            0.0000000000
     45480      7055  TIP3      H1            -22.4005256190       -4.7370995965      -36.4042336846  TIP3      6855            0.0000000000
     45481      7055  TIP3      H2            -21.4410461989       -4.4607307252      -35.2801975106  TIP3      6855            0.0000000000
     45482      7056  TIP3      OH2           -23.4925885557       -8.2617324535      -31.3326156408  TIP3      6856            0.0000000000
     45483      7056  TIP3      H1            -24.3989874117       -8.2866087875      -30.9720481326  TIP3      6856            0.0000000000
     45484      7056  TIP3      H2            -23.1206853045       -7.4552847236      -30.9258851134  TIP3      6856            0.0000000000
     45485      7057  TIP3      OH2           -22.1818977980       -9.9291240308      -45.8845672866  TIP3      6857            0.0000000000
     45486      7057  TIP3      H1            -21.3096744633       -9.5424640630      -45.7086869761  TIP3      6857            0.0000000000
     45487      7057  TIP3      H2            -22.1956991092      -10.6555267900      -45.2228726011  TIP3      6857            0.0000000000
     45488      7058  TIP3      OH2           -21.8228267678      -11.8522750058      -43.9945263365  TIP3      6858            0.0000000000
     45489      7058  TIP3      H1            -22.5651707312      -12.3725053657      -43.6184700587  TIP3      6858            0.0000000000
     45490      7058  TIP3      H2            -21.2188939596      -11.7279714746      -43.2395194025  TIP3      6858            0.0000000000
     45491      7059  TIP3      OH2           -22.0526112908       -9.1630330859      -39.0059934181  TIP3      6859            0.0000000000
     45492      7059  TIP3      H1            -21.2464755144       -9.5171409252      -39.4195768293  TIP3      6859            0.0000000000
     45493      7059  TIP3      H2            -21.9297709704       -8.2073939048      -39.2032753455  TIP3      6859            0.0000000000
     45494      7060  TIP3      OH2           -23.5038865166       -6.2633386710      -36.7488866456  TIP3      6860            0.0000000000
     45495      7060  TIP3      H1            -24.2016063547       -5.8935340817      -36.1936469999  TIP3      6860            0.0000000000
     45496      7060  TIP3      H2            -24.0395284058       -6.6333856751      -37.4869481174  TIP3      6860            0.0000000000
     45497      7061  TIP3      OH2           -21.4842366843      -11.9902437064      -47.6335751593  TIP3      6861            0.0000000000
     45498      7061  TIP3      H1            -22.0848668937      -11.6865540354      -48.3517965821  TIP3      6861            0.0000000000
     45499      7061  TIP3      H2            -21.6198902370      -11.2953173731      -46.9599039242  TIP3      6861            0.0000000000
     45500      7062  TIP3      OH2           -23.1877901614      -14.7260498143      -48.7694945480  TIP3      6862            0.0000000000
     45501      7062  TIP3      H1            -23.0249914661      -14.1068524229      -49.5110864437  TIP3      6862            0.0000000000
     45502      7062  TIP3      H2            -23.1406944490      -15.5735439624      -49.2522965016  TIP3      6862            0.0000000000
     45503      7063  TIP3      OH2           -23.9999064526      -13.3888756885      -43.4246532164  TIP3      6863            0.0000000000
     45504      7063  TIP3      H1            -24.1511428378      -14.3453847720      -43.4573617921  TIP3      6863            0.0000000000
     45505      7063  TIP3      H2            -24.3357620546      -13.1721193253      -42.5401805726  TIP3      6863            0.0000000000
     45506      7064  TIP3      OH2           -38.9013115048      -11.4464285432      -39.2729195435  TIP3      6864            0.0000000000
     45507      7064  TIP3      H1            -38.7486161745      -11.4459644613      -40.2468655491  TIP3      6864            0.0000000000
     45508      7064  TIP3      H2            -37.9776403112      -11.4812018529      -38.9491373116  TIP3      6864            0.0000000000
     45509      7065  TIP3      OH2           -23.1351338711      -11.4128025638      -33.7572603743  TIP3      6865            0.0000000000
     45510      7065  TIP3      H1            -22.5263086081      -12.1706456516      -33.6270354134  TIP3      6865            0.0000000000
     45511      7065  TIP3      H2            -22.5297224176      -10.6408160222      -33.7545204864  TIP3      6865            0.0000000000
     45512      7066  TIP3      OH2           -21.6341230057      -13.5365592213      -33.1083111722  TIP3      6866            0.0000000000
     45513      7066  TIP3      H1            -22.5171994651      -13.9342213138      -33.2617836406  TIP3      6866            0.0000000000
     45514      7066  TIP3      H2            -21.0645505003      -14.3200399903      -33.1850870395  TIP3      6866            0.0000000000
     45515      7067  TIP3      OH2           -23.9138623248      -17.4531383139      -49.9537696537  TIP3      6867            0.0000000000
     45516      7067  TIP3      H1            -23.3240879748      -17.8552081080      -49.2907585861  TIP3      6867            0.0000000000
     45517      7067  TIP3      H2            -24.7941162694      -17.7976121252      -49.7480246057  TIP3      6867            0.0000000000
     45518      7068  TIP3      OH2           -24.3449995696      -15.8166675420      -45.0486081882  TIP3      6868            0.0000000000
     45519      7068  TIP3      H1            -24.0407577901      -16.7298116590      -44.8374988636  TIP3      6868            0.0000000000
     45520      7068  TIP3      H2            -23.5312680786      -15.4112836052      -45.3744621728  TIP3      6868            0.0000000000
     45521      7069  TIP3      OH2           -23.2855039827      -15.5065233118      -39.1403285081  TIP3      6869            0.0000000000
     45522      7069  TIP3      H1            -22.5830944022      -14.9050026069      -39.4397118051  TIP3      6869            0.0000000000
     45523      7069  TIP3      H2            -23.8359622814      -14.9955147055      -38.5434392740  TIP3      6869            0.0000000000
     45524      7070  TIP3      OH2           -23.6124341228      -14.5101820980      -36.6444354001  TIP3      6870            0.0000000000
     45525      7070  TIP3      H1            -24.5271907901      -14.2345463513      -36.4431513319  TIP3      6870            0.0000000000
     45526      7070  TIP3      H2            -23.2016156444      -13.6831311445      -36.9935554376  TIP3      6870            0.0000000000
     45527      7071  TIP3      OH2           -39.2380109991      -15.9472301903      -33.4154065492  TIP3      6871            0.0000000000
     45528      7071  TIP3      H1            -38.3526788319      -16.1571491517      -33.0706962891  TIP3      6871            0.0000000000
     45529      7071  TIP3      H2            -39.8046538570      -16.5968165053      -32.9688111511  TIP3      6871            0.0000000000
     45530      7072  TIP3      OH2           -21.3508564627      -20.4680035887      -31.4282004875  TIP3      6872            0.0000000000
     45531      7072  TIP3      H1            -20.9981618328      -21.1295182358      -32.0480895817  TIP3      6872            0.0000000000
     45532      7072  TIP3      H2            -21.2501538046      -19.6539293162      -31.9612787923  TIP3      6872            0.0000000000
     45533      7073  TIP3      OH2           -23.6222165643      -18.5363117901      -44.9723109321  TIP3      6873            0.0000000000
     45534      7073  TIP3      H1            -23.4575867466      -18.9363406800      -44.0882215308  TIP3      6873            0.0000000000
     45535      7073  TIP3      H2            -24.2798814320      -19.1424239279      -45.3748032466  TIP3      6873            0.0000000000
     45536      7074  TIP3      OH2           -38.1049450580      -17.7350614097      -40.5005733198  TIP3      6874            0.0000000000
     45537      7074  TIP3      H1            -37.7258360591      -18.5527935725      -40.1227612975  TIP3      6874            0.0000000000
     45538      7074  TIP3      H2            -37.6740702805      -17.0408092797      -39.9814542305  TIP3      6874            0.0000000000
     45539      7075  TIP3      OH2           -39.8514799416      -14.1769989105      -39.4158726701  TIP3      6875            0.0000000000
     45540      7075  TIP3      H1            -39.3130569405      -14.6558918683      -40.0654772379  TIP3      6875            0.0000000000
     45541      7075  TIP3      H2            -39.2049216689      -13.6139982633      -38.9796302783  TIP3      6875            0.0000000000
     45542      7076  TIP3      OH2           -21.8291661315      -18.3706311199      -33.0727999822  TIP3      6876            0.0000000000
     45543      7076  TIP3      H1            -22.7653223636      -18.0980044470      -33.1256671807  TIP3      6876            0.0000000000
     45544      7076  TIP3      H2            -21.7997565228      -18.9188978039      -33.8712926891  TIP3      6876            0.0000000000
     45545      7077  TIP3      OH2           -21.8145584214      -18.4651948945      -48.3655590990  TIP3      6877            0.0000000000
     45546      7077  TIP3      H1            -21.4013843933      -19.1447318077      -48.9173517547  TIP3      6877            0.0000000000
     45547      7077  TIP3      H2            -21.1201592384      -17.7862807570      -48.3749632049  TIP3      6877            0.0000000000
     45548      7078  TIP3      OH2           -39.4904336738      -18.4168300794      -45.3324770329  TIP3      6878            0.0000000000
     45549      7078  TIP3      H1            -40.4325659350      -18.2669919179      -45.4731172951  TIP3      6878            0.0000000000
     45550      7078  TIP3      H2            -39.0451360853      -17.9345115098      -46.0502406034  TIP3      6878            0.0000000000
     45551      7079  TIP3      OH2           -24.8610035300       -3.3110680444      -43.4917473630  TIP3      6879            0.0000000000
     45552      7079  TIP3      H1            -24.1556603531       -3.8335746269      -43.9203640681  TIP3      6879            0.0000000000
     45553      7079  TIP3      H2            -24.3236942988       -3.1147633796      -42.6887562256  TIP3      6879            0.0000000000
     45554      7080  TIP3      OH2            40.3488897429      -19.6533719593      -37.0144048886  TIP3      6880            0.0000000000
     45555      7080  TIP3      H1             39.6515772195      -19.9805081479      -36.4104995935  TIP3      6880            0.0000000000
     45556      7080  TIP3      H2             39.7960080121      -19.0625431404      -37.5400173595  TIP3      6880            0.0000000000
     45557      7081  TIP3      OH2           -37.3799726370       -6.5739734038      -32.7941920168  TIP3      6881            0.0000000000
     45558      7081  TIP3      H1            -38.2000383755       -6.3914891479      -33.2532083479  TIP3      6881            0.0000000000
     45559      7081  TIP3      H2            -37.6256394358       -6.6839422794      -31.8682218784  TIP3      6881            0.0000000000
     45560      7082  TIP3      OH2           -34.4424413466       -5.5848984666      -36.5387693295  TIP3      6882            0.0000000000
     45561      7082  TIP3      H1            -34.7929192730       -4.7239236966      -36.8122935497  TIP3      6882            0.0000000000
     45562      7082  TIP3      H2            -33.5155567950       -5.4943452675      -36.8471124970  TIP3      6882            0.0000000000
     45563      7083  TIP3      OH2           -30.1192093804       -4.1610521911      -33.6391766946  TIP3      6883            0.0000000000
     45564      7083  TIP3      H1            -29.9800099681       -4.5145201576      -32.7296741871  TIP3      6883            0.0000000000
     45565      7083  TIP3      H2            -29.2163247605       -3.8524395601      -33.8796476057  TIP3      6883            0.0000000000
     45566      7084  TIP3      OH2           -27.8422064415       -2.9018466379      -34.3088044309  TIP3      6884            0.0000000000
     45567      7084  TIP3      H1            -27.1048271120       -3.4758662789      -34.5620214883  TIP3      6884            0.0000000000
     45568      7084  TIP3      H2            -27.4591209056       -2.4494893795      -33.5271500142  TIP3      6884            0.0000000000
     45569      7085  TIP3      OH2           -22.8155980252      -20.2787659294      -35.2180689287  TIP3      6885            0.0000000000
     45570      7085  TIP3      H1            -23.6305050769      -19.9629005598      -35.6480656304  TIP3      6885            0.0000000000
     45571      7085  TIP3      H2            -22.6441235824      -21.1021964335      -35.7348523890  TIP3      6885            0.0000000000
     45572      7086  TIP3      OH2           -37.0336166444       -2.3376770194      -36.5224243278  TIP3      6886            0.0000000000
     45573      7086  TIP3      H1            -37.7712276170       -1.8501202542      -36.9316069853  TIP3      6886            0.0000000000
     45574      7086  TIP3      H2            -37.3486506592       -2.5589168348      -35.6388669478  TIP3      6886            0.0000000000
     45575      7087  TIP3      OH2           -34.5346283370       -2.7652917498      -37.4638162126  TIP3      6887            0.0000000000
     45576      7087  TIP3      H1            -35.4372349914       -2.6340760216      -37.0901051839  TIP3      6887            0.0000000000
     45577      7087  TIP3      H2            -34.5897893056       -2.1843680845      -38.2452824967  TIP3      6887            0.0000000000
     45578      7088  TIP3      OH2           -29.8364939292       -2.8694497407      -38.3029141816  TIP3      6888            0.0000000000
     45579      7088  TIP3      H1            -30.2982498144       -2.3068013313      -38.9475812273  TIP3      6888            0.0000000000
     45580      7088  TIP3      H2            -29.6872111449       -2.2356599717      -37.5734220959  TIP3      6888            0.0000000000
     45581      7089  TIP3      OH2           -27.5595079307       -4.0590563104      -37.2624432176  TIP3      6889            0.0000000000
     45582      7089  TIP3      H1            -28.4048131876       -3.7701321512      -37.6431656489  TIP3      6889            0.0000000000
     45583      7089  TIP3      H2            -27.0522505753       -3.2363041362      -37.3721775827  TIP3      6889            0.0000000000
     45584      7090  TIP3      OH2           -25.0005523008       -2.4551076132      -37.0189762419  TIP3      6890            0.0000000000
     45585      7090  TIP3      H1            -25.0128791685       -1.5120330508      -37.3038001426  TIP3      6890            0.0000000000
     45586      7090  TIP3      H2            -24.7499695736       -2.8649387201      -37.8906506031  TIP3      6890            0.0000000000
     45587      7091  TIP3      OH2           -37.5228470062       -3.6524301157      -39.5999986479  TIP3      6891            0.0000000000
     45588      7091  TIP3      H1            -37.6252389555       -4.1416261141      -38.7634743677  TIP3      6891            0.0000000000
     45589      7091  TIP3      H2            -36.7563547246       -4.0929111904      -40.0086074091  TIP3      6891            0.0000000000
     45590      7092  TIP3      OH2           -35.4914787847       -5.0000002714      -40.9431754074  TIP3      6892            0.0000000000
     45591      7092  TIP3      H1            -35.6518833601       -5.9322896600      -40.7052248163  TIP3      6892            0.0000000000
     45592      7092  TIP3      H2            -34.6344891116       -4.8298469595      -40.4947549493  TIP3      6892            0.0000000000
     45593      7093  TIP3      OH2           -32.8974489994       -4.5075370982      -40.0662781940  TIP3      6893            0.0000000000
     45594      7093  TIP3      H1            -32.7203140358       -5.4270315250      -40.3356571843  TIP3      6893            0.0000000000
     45595      7093  TIP3      H2            -32.8260512773       -4.5594323552      -39.1033413033  TIP3      6893            0.0000000000
     45596      7094  TIP3      OH2           -29.4613137662      -18.8639095755      -40.9648290701  TIP3      6894            0.0000000000
     45597      7094  TIP3      H1            -30.1024471452      -19.5186263383      -40.6552419040  TIP3      6894            0.0000000000
     45598      7094  TIP3      H2            -28.8601149822      -19.3847234358      -41.5073982778  TIP3      6894            0.0000000000
     45599      7095  TIP3      OH2           -24.2882618532      -20.8647112078      -40.9175390370  TIP3      6895            0.0000000000
     45600      7095  TIP3      H1            -23.6952296353      -20.1886123348      -41.3526245917  TIP3      6895            0.0000000000
     45601      7095  TIP3      H2            -25.1469246256      -20.4198757204      -41.0838712272  TIP3      6895            0.0000000000
     45602      7096  TIP3      OH2           -22.5759866536      -19.6091216470      -42.6166605365  TIP3      6896            0.0000000000
     45603      7096  TIP3      H1            -21.8762739710      -20.1462190955      -43.0296019018  TIP3      6896            0.0000000000
     45604      7096  TIP3      H2            -22.1478348044      -18.7316063887      -42.4711283288  TIP3      6896            0.0000000000
     45605      7097  TIP3      OH2           -37.0294280648      -20.2323337272      -43.0729790509  TIP3      6897            0.0000000000
     45606      7097  TIP3      H1            -37.8161031038      -20.4133080224      -43.6281893563  TIP3      6897            0.0000000000
     45607      7097  TIP3      H2            -36.5787593530      -21.0950501227      -43.1401398239  TIP3      6897            0.0000000000
     45608      7098  TIP3      OH2           -38.2878984998      -20.4738508816      -47.3415437416  TIP3      6898            0.0000000000
     45609      7098  TIP3      H1            -37.7670717065      -19.8341201086      -47.8698829054  TIP3      6898            0.0000000000
     45610      7098  TIP3      H2            -38.8421831416      -19.8780843778      -46.8079721673  TIP3      6898            0.0000000000
     45611      7099  TIP3      OH2           -32.5803884386      -20.3027862159      -43.3014329961  TIP3      6899            0.0000000000
     45612      7099  TIP3      H1            -31.6793868338      -19.9456113126      -43.3765693044  TIP3      6899            0.0000000000
     45613      7099  TIP3      H2            -32.6106982014      -20.5211462637      -42.3703887851  TIP3      6899            0.0000000000
     45614      7100  TIP3      OH2           -26.8961829503      -20.2880465605      -41.6650089490  TIP3      6900            0.0000000000
     45615      7100  TIP3      H1            -26.8986938084      -20.1528864827      -42.6219214030  TIP3      6900            0.0000000000
     45616      7100  TIP3      H2            -27.2512770923      -21.1967233528      -41.5516595597  TIP3      6900            0.0000000000
     45617      7101  TIP3      OH2           -25.5810603084      -20.2524483828      -45.9940368021  TIP3      6901            0.0000000000
     45618      7101  TIP3      H1            -26.3309234289      -19.6682485029      -46.1819109507  TIP3      6901            0.0000000000
     45619      7101  TIP3      H2            -26.0303795408      -21.1032831569      -45.7853953910  TIP3      6901            0.0000000000
     45620      7102  TIP3      OH2           -38.3365872367       -4.5093130028      -46.4386570115  TIP3      6902            0.0000000000
     45621      7102  TIP3      H1            -39.0534112203       -4.5054152695      -47.0726367561  TIP3      6902            0.0000000000
     45622      7102  TIP3      H2            -38.3276698343       -3.5809885916      -46.1517545981  TIP3      6902            0.0000000000
     45623      7103  TIP3      OH2           -36.4376607065      -18.5369894787      -48.8371677343  TIP3      6903            0.0000000000
     45624      7103  TIP3      H1            -35.9710698593      -19.2120494041      -49.3430690379  TIP3      6903            0.0000000000
     45625      7103  TIP3      H2            -35.7576377834      -18.2380724367      -48.2118526273  TIP3      6903            0.0000000000
     45626      7104  TIP3      OH2           -31.4043081709      -18.2675225686      -46.4586718444  TIP3      6904            0.0000000000
     45627      7104  TIP3      H1            -31.1761417627      -18.8662238740      -45.7301369134  TIP3      6904            0.0000000000
     45628      7104  TIP3      H2            -31.3637247514      -17.4196820502      -45.9594896916  TIP3      6904            0.0000000000
     45629      7105  TIP3      OH2           -29.5025704757       -3.2231110305      -48.0154511189  TIP3      6905            0.0000000000
     45630      7105  TIP3      H1            -28.5641728055       -2.9681875309      -48.1847993866  TIP3      6905            0.0000000000
     45631      7105  TIP3      H2            -29.6782737843       -3.7241902370      -48.8366503185  TIP3      6905            0.0000000000
     45632      7106  TIP3      OH2           -22.7346547157       -3.7066617635      -45.3397137614  TIP3      6906            0.0000000000
     45633      7106  TIP3      H1            -23.0180214359       -4.4986306476      -45.8480439875  TIP3      6906            0.0000000000
     45634      7106  TIP3      H2            -22.9091769070       -2.9599317225      -45.9328138353  TIP3      6906            0.0000000000
     45635      7107  TIP3      OH2           -37.1693887723      -19.6695127418      -33.6203316418  TIP3      6907            0.0000000000
     45636      7107  TIP3      H1            -37.5643718907      -20.4788652637      -33.2446745254  TIP3      6907            0.0000000000
     45637      7107  TIP3      H2            -36.2540471778      -19.7308351910      -33.2543453657  TIP3      6907            0.0000000000
     45638      7108  TIP3      OH2           -35.1811722346      -20.3006101204      -31.9965421974  TIP3      6908            0.0000000000
     45639      7108  TIP3      H1            -34.2880708726      -20.6327182730      -32.2113532368  TIP3      6908            0.0000000000
     45640      7108  TIP3      H2            -35.5459426925      -21.1087785394      -31.5936990990  TIP3      6908            0.0000000000
     45641      7109  TIP3      OH2           -36.1430700134       -3.4116308864      -48.9342211662  TIP3      6909            0.0000000000
     45642      7109  TIP3      H1            -36.8349545348       -3.4113037398      -48.2661617601  TIP3      6909            0.0000000000
     45643      7109  TIP3      H2            -35.7370770491       -4.2797330258      -49.0082992340  TIP3      6909            0.0000000000
     45644      7110  TIP3      OH2           -26.7620502978      -21.0203462327      -31.8461172211  TIP3      6910            0.0000000000
     45645      7110  TIP3      H1            -26.6678186592      -21.4901134425      -30.9944683884  TIP3      6910            0.0000000000
     45646      7110  TIP3      H2            -25.8434673688      -21.0502687028      -32.1857642881  TIP3      6910            0.0000000000
     45647      7111  TIP3      OH2           -23.5584786322       -4.9716024012      -33.1804557042  TIP3      6911            0.0000000000
     45648      7111  TIP3      H1            -24.3471274538       -5.1069170592      -33.7513930883  TIP3      6911            0.0000000000
     45649      7111  TIP3      H2            -23.6666793493       -4.0160637169      -33.0068221161  TIP3      6911            0.0000000000
     45650      7112  TIP3      OH2            -9.1032668728      -11.0849101122      -43.2446451260  TIP3      6912            0.0000000000
     45651      7112  TIP3      H1             -9.1218450866      -10.1048378503      -43.2679299062  TIP3      6912            0.0000000000
     45652      7112  TIP3      H2             -9.8363485451      -11.3222157742      -43.8343226140  TIP3      6912            0.0000000000
     45653      7113  TIP3      OH2           -10.2500184336      -11.8331372626      -39.7259176535  TIP3      6913            0.0000000000
     45654      7113  TIP3      H1            -10.2668427212      -12.4833294577      -39.0098456768  TIP3      6913            0.0000000000
     45655      7113  TIP3      H2            -10.6046599154      -12.3401649602      -40.4760491920  TIP3      6913            0.0000000000
     45656      7114  TIP3      OH2           -17.9002747523      -12.1472064819      -38.1774903001  TIP3      6914            0.0000000000
     45657      7114  TIP3      H1            -17.8288116914      -12.8511928776      -37.4954291867  TIP3      6914            0.0000000000
     45658      7114  TIP3      H2            -17.1439251221      -11.5987402364      -37.9424647744  TIP3      6914            0.0000000000
     45659      7115  TIP3      OH2            -6.5673930444       -8.8856466160      -41.4437982311  TIP3      6915            0.0000000000
     45660      7115  TIP3      H1             -6.9792738560       -9.6030175927      -40.9523666730  TIP3      6915            0.0000000000
     45661      7115  TIP3      H2             -6.5415361910       -8.1772377241      -40.7741656147  TIP3      6915            0.0000000000
     45662      7116  TIP3      OH2           -16.9342675220       -7.7583688498      -39.5892252733  TIP3      6916            0.0000000000
     45663      7116  TIP3      H1            -17.3502185118       -8.5522756448      -39.9982916453  TIP3      6916            0.0000000000
     45664      7116  TIP3      H2            -16.0406882254       -7.9325745128      -39.8796456975  TIP3      6916            0.0000000000
     45665      7117  TIP3      OH2           -20.3434945441      -14.1585177172      -44.1850034389  TIP3      6917            0.0000000000
     45666      7117  TIP3      H1            -20.7588911495      -13.2799148590      -44.2586763253  TIP3      6917            0.0000000000
     45667      7117  TIP3      H2            -20.8827697244      -14.6881320442      -44.7868130571  TIP3      6917            0.0000000000
     45668      7118  TIP3      OH2           -19.5950690435      -11.9157461608      -42.0328966909  TIP3      6918            0.0000000000
     45669      7118  TIP3      H1            -19.3356553825      -12.7481814738      -41.5926602259  TIP3      6918            0.0000000000
     45670      7118  TIP3      H2            -18.9162042532      -11.8245037282      -42.7155715022  TIP3      6918            0.0000000000
     45671      7119  TIP3      OH2            -9.4407224531       -3.7233842451      -41.2025192692  TIP3      6919            0.0000000000
     45672      7119  TIP3      H1             -8.7964833484       -4.4147703287      -41.4939651389  TIP3      6919            0.0000000000
     45673      7119  TIP3      H2             -9.6626037708       -4.0656000237      -40.3370160983  TIP3      6919            0.0000000000
     45674      7120  TIP3      OH2           -11.8947662098       -9.4228652261      -39.2383986343  TIP3      6920            0.0000000000
     45675      7120  TIP3      H1            -11.5500658823      -10.0468540463      -39.9016938670  TIP3      6920            0.0000000000
     45676      7120  TIP3      H2            -11.0595296550       -9.2820237639      -38.7474627686  TIP3      6920            0.0000000000
     45677      7121  TIP3      OH2            -3.2847578502      -17.7694590609      -38.5358829198  TIP3      6921            0.0000000000
     45678      7121  TIP3      H1             -3.1033243138      -17.1862208233      -37.7675140537  TIP3      6921            0.0000000000
     45679      7121  TIP3      H2             -2.7119968661      -17.3520358931      -39.1950813164  TIP3      6921            0.0000000000
     45680      7122  TIP3      OH2            -8.7090170237      -14.9660326285      -38.9422315717  TIP3      6922            0.0000000000
     45681      7122  TIP3      H1             -8.5403245706      -15.9247483631      -38.9372772410  TIP3      6922            0.0000000000
     45682      7122  TIP3      H2             -8.8118601207      -14.8264655459      -39.9035450384  TIP3      6922            0.0000000000
     45683      7123  TIP3      OH2           -15.5976859443      -16.8755975654      -41.7296097543  TIP3      6923            0.0000000000
     45684      7123  TIP3      H1            -15.4878293171      -16.0417532022      -42.2235528675  TIP3      6923            0.0000000000
     45685      7123  TIP3      H2            -15.9943721842      -17.4510102539      -42.4198728129  TIP3      6923            0.0000000000
     45686      7124  TIP3      OH2            -7.8557965196      -16.7956686909      -43.3589312846  TIP3      6924            0.0000000000
     45687      7124  TIP3      H1             -7.2061027286      -17.1103168756      -42.6886398109  TIP3      6924            0.0000000000
     45688      7124  TIP3      H2             -7.2912026130      -16.2250559039      -43.9051598495  TIP3      6924            0.0000000000
     45689      7125  TIP3      OH2           -18.9306834252      -14.4357232094      -41.0133528438  TIP3      6925            0.0000000000
     45690      7125  TIP3      H1            -18.3004825901      -15.0116509610      -40.5400503414  TIP3      6925            0.0000000000
     45691      7125  TIP3      H2            -18.8648802320      -14.7930909242      -41.9096055932  TIP3      6925            0.0000000000
     45692      7126  TIP3      OH2           -13.8136128867      -12.9126448680      -41.6716901716  TIP3      6926            0.0000000000
     45693      7126  TIP3      H1            -13.1403906037      -13.4922079590      -41.2751198596  TIP3      6926            0.0000000000
     45694      7126  TIP3      H2            -14.3279549534      -13.5680353032      -42.1822858766  TIP3      6926            0.0000000000
     45695      7127  TIP3      OH2            -2.8418158871      -16.3712720016      -36.2555838342  TIP3      6927            0.0000000000
     45696      7127  TIP3      H1             -3.4434080466      -15.6025757900      -36.3685713773  TIP3      6927            0.0000000000
     45697      7127  TIP3      H2             -2.8068518215      -16.4473090899      -35.2953380001  TIP3      6927            0.0000000000
     45698      7128  TIP3      OH2           -16.6840036785      -17.9764972887      -37.6890831624  TIP3      6928            0.0000000000
     45699      7128  TIP3      H1            -16.9674447730      -17.4057343404      -38.4350599392  TIP3      6928            0.0000000000
     45700      7128  TIP3      H2            -17.3621703820      -17.7485218150      -37.0071086487  TIP3      6928            0.0000000000
     45701      7129  TIP3      OH2            -9.4091368472       -8.5020953346      -44.1447014563  TIP3      6929            0.0000000000
     45702      7129  TIP3      H1             -9.6785913038       -8.7832501765      -45.0320280178  TIP3      6929            0.0000000000
     45703      7129  TIP3      H2             -9.7057412797       -7.5632324412      -44.1048416187  TIP3      6929            0.0000000000
     45704      7130  TIP3      OH2           -14.2006320782      -10.2972314154      -37.5247912730  TIP3      6930            0.0000000000
     45705      7130  TIP3      H1            -14.8883176950       -9.7405826403      -37.1289074061  TIP3      6930            0.0000000000
     45706      7130  TIP3      H2            -13.4200490998       -9.7499499139      -37.7072080162  TIP3      6930            0.0000000000
     45707      7131  TIP3      OH2            -6.0429002022      -17.4501576300      -41.3663338403  TIP3      6931            0.0000000000
     45708      7131  TIP3      H1             -6.2666462565      -18.2182344560      -40.8332441069  TIP3      6931            0.0000000000
     45709      7131  TIP3      H2             -5.3746085470      -17.0141138037      -40.8108860463  TIP3      6931            0.0000000000
     45710      7132  TIP3      OH2           -17.1167095221      -16.1210893195      -39.6495503930  TIP3      6932            0.0000000000
     45711      7132  TIP3      H1            -16.4901194246      -15.4300812967      -39.3396928178  TIP3      6932            0.0000000000
     45712      7132  TIP3      H2            -16.6024452499      -16.5296687972      -40.3906250653  TIP3      6932            0.0000000000
     45713      7133  TIP3      OH2           -15.8004831154       -8.3575103370      -36.4586185785  TIP3      6933            0.0000000000
     45714      7133  TIP3      H1            -15.8967520997       -7.4026072234      -36.6663114151  TIP3      6933            0.0000000000
     45715      7133  TIP3      H2            -16.7046914314       -8.4789051493      -36.0622102657  TIP3      6933            0.0000000000
     45716      7134  TIP3      OH2           -19.6725804962       -8.7325587043      -45.8002490214  TIP3      6934            0.0000000000
     45717      7134  TIP3      H1            -19.8935585124       -8.4190846839      -46.6989132996  TIP3      6934            0.0000000000
     45718      7134  TIP3      H2            -19.5816562032       -7.8897608309      -45.3119403701  TIP3      6934            0.0000000000
     45719      7135  TIP3      OH2            -6.0382092137       -7.0465900041      -39.0761996048  TIP3      6935            0.0000000000
     45720      7135  TIP3      H1             -7.0068161454       -6.9339367702      -38.9590469385  TIP3      6935            0.0000000000
     45721      7135  TIP3      H2             -5.7683740655       -6.1316040917      -39.2816295096  TIP3      6935            0.0000000000
     45722      7136  TIP3      OH2            -5.7157399459      -18.7659209092      -37.6887425951  TIP3      6936            0.0000000000
     45723      7136  TIP3      H1             -6.4376712963      -18.1313762396      -37.7827128702  TIP3      6936            0.0000000000
     45724      7136  TIP3      H2             -4.9996183644      -18.3468025346      -38.2113044311  TIP3      6936            0.0000000000
     45725      7137  TIP3      OH2           -12.7501422151      -20.6426292250      -40.2226998808  TIP3      6937            0.0000000000
     45726      7137  TIP3      H1            -12.8941768912      -21.6060812747      -40.2997931211  TIP3      6937            0.0000000000
     45727      7137  TIP3      H2            -13.6284870435      -20.3374025069      -39.9163569511  TIP3      6937            0.0000000000
     45728      7138  TIP3      OH2            -7.7678149634       -5.2662385583      -42.4729804122  TIP3      6938            0.0000000000
     45729      7138  TIP3      H1             -7.3516093263       -5.9845109967      -42.9945581124  TIP3      6938            0.0000000000
     45730      7138  TIP3      H2             -7.3442341089       -4.4778567692      -42.8772599936  TIP3      6938            0.0000000000
     45731      7139  TIP3      OH2            -6.5673604141       -7.3438648870      -43.9521139341  TIP3      6939            0.0000000000
     45732      7139  TIP3      H1             -6.8562089847       -8.0292413313      -44.5806913000  TIP3      6939            0.0000000000
     45733      7139  TIP3      H2             -6.5332245501       -7.8454851032      -43.1196976935  TIP3      6939            0.0000000000
     45734      7140  TIP3      OH2            -4.9523160961       -8.7380599126      -35.4782198783  TIP3      6940            0.0000000000
     45735      7140  TIP3      H1             -4.8020622459       -9.3944151781      -36.1945645167  TIP3      6940            0.0000000000
     45736      7140  TIP3      H2             -4.7417595329       -7.8980089191      -35.9247211233  TIP3      6940            0.0000000000
     45737      7141  TIP3      OH2           -10.4649119694      -11.8200999420      -45.7155471564  TIP3      6941            0.0000000000
     45738      7141  TIP3      H1            -11.1571306143      -11.2392591780      -46.0913061635  TIP3      6941            0.0000000000
     45739      7141  TIP3      H2             -9.7464483400      -11.7487724563      -46.3736634156  TIP3      6941            0.0000000000
     45740      7142  TIP3      OH2           -10.3508246808      -13.3547077657      -48.6770619452  TIP3      6942            0.0000000000
     45741      7142  TIP3      H1             -9.6326934972      -13.3182022399      -48.0168579002  TIP3      6942            0.0000000000
     45742      7142  TIP3      H2            -10.0173755097      -14.0539516128      -49.2684492093  TIP3      6942            0.0000000000
     45743      7143  TIP3      OH2            -3.0616207423      -12.4277463536      -37.4351304716  TIP3      6943            0.0000000000
     45744      7143  TIP3      H1             -3.7183386916      -11.7041478358      -37.3966617382  TIP3      6943            0.0000000000
     45745      7143  TIP3      H2             -2.5652764186      -12.1944566838      -38.2408216837  TIP3      6943            0.0000000000
     45746      7144  TIP3      OH2            -7.0097963864      -11.6306949690      -44.7723125944  TIP3      6944            0.0000000000
     45747      7144  TIP3      H1             -7.7573923625      -11.3966952691      -44.1713958152  TIP3      6944            0.0000000000
     45748      7144  TIP3      H2             -6.5303965088      -12.3094430203      -44.2655791961  TIP3      6944            0.0000000000
     45749      7145  TIP3      OH2            -7.0729110317      -13.4759546391      -35.6671243580  TIP3      6945            0.0000000000
     45750      7145  TIP3      H1             -7.0662749053      -12.6551354485      -35.1473793940  TIP3      6945            0.0000000000
     45751      7145  TIP3      H2             -7.7021597433      -13.1857603088      -36.3600585010  TIP3      6945            0.0000000000
     45752      7146  TIP3      OH2           -15.3917443334      -10.9746320383      -42.8611048963  TIP3      6946            0.0000000000
     45753      7146  TIP3      H1            -15.7121484648      -11.3472464909      -43.7214931140  TIP3      6946            0.0000000000
     45754      7146  TIP3      H2            -14.7782968629      -11.6799347011      -42.5528738478  TIP3      6946            0.0000000000
     45755      7147  TIP3      OH2           -14.0490583075       -7.6503317236      -40.2085952815  TIP3      6947            0.0000000000
     45756      7147  TIP3      H1            -14.0509513194       -8.1054923251      -41.0719916761  TIP3      6947            0.0000000000
     45757      7147  TIP3      H2            -13.1878677758       -7.9566229116      -39.8462007927  TIP3      6947            0.0000000000
     45758      7148  TIP3      OH2           -15.0791025594      -12.2099564056      -39.2229552711  TIP3      6948            0.0000000000
     45759      7148  TIP3      H1            -14.5139049316      -12.1630920544      -40.0207188995  TIP3      6948            0.0000000000
     45760      7148  TIP3      H2            -14.6447988096      -11.5866809272      -38.6049819705  TIP3      6948            0.0000000000
     45761      7149  TIP3      OH2            -8.6491002695       -6.6621929919      -38.5058462129  TIP3      6949            0.0000000000
     45762      7149  TIP3      H1             -8.9310133750       -6.0267411756      -37.8410609740  TIP3      6949            0.0000000000
     45763      7149  TIP3      H2             -8.9070203764       -7.5151555790      -38.0864227603  TIP3      6949            0.0000000000
     45764      7150  TIP3      OH2           -14.0755680780       -7.7645483314      -34.5450790271  TIP3      6950            0.0000000000
     45765      7150  TIP3      H1            -14.5058399989       -7.0723828869      -33.9987811475  TIP3      6950            0.0000000000
     45766      7150  TIP3      H2            -14.8044749960       -8.0252632626      -35.1495166012  TIP3      6950            0.0000000000
     45767      7151  TIP3      OH2            -8.1664466944      -12.4310895958      -47.1149431312  TIP3      6951            0.0000000000
     45768      7151  TIP3      H1             -7.5888735668      -12.2601528480      -46.3331164696  TIP3      6951            0.0000000000
     45769      7151  TIP3      H2             -7.6796828635      -11.9599935890      -47.8352350287  TIP3      6951            0.0000000000
     45770      7152  TIP3      OH2           -17.1551444386      -11.5989645958      -35.4096529325  TIP3      6952            0.0000000000
     45771      7152  TIP3      H1            -17.1235629625      -10.9850328758      -34.6517981563  TIP3      6952            0.0000000000
     45772      7152  TIP3      H2            -18.1152629046      -11.5900783722      -35.5680749259  TIP3      6952            0.0000000000
     45773      7153  TIP3      OH2           -10.4028742827       -5.7092806599      -43.6716767419  TIP3      6953            0.0000000000
     45774      7153  TIP3      H1             -9.9828575958       -5.4138219926      -42.8539081633  TIP3      6953            0.0000000000
     45775      7153  TIP3      H2            -10.9777748790       -4.9674653603      -43.8873636693  TIP3      6953            0.0000000000
     45776      7154  TIP3      OH2           -15.8585526219       -5.7882216848      -33.7922671065  TIP3      6954            0.0000000000
     45777      7154  TIP3      H1            -15.9485762835       -5.8604767560      -34.7481635624  TIP3      6954            0.0000000000
     45778      7154  TIP3      H2            -16.7853968300       -5.8935578877      -33.4885886181  TIP3      6954            0.0000000000
     45779      7155  TIP3      OH2            -4.3850050270      -20.7278440274      -47.2712086373  TIP3      6955            0.0000000000
     45780      7155  TIP3      H1             -5.3286165262      -20.6278158617      -46.9922653051  TIP3      6955            0.0000000000
     45781      7155  TIP3      H2             -4.2197830818      -19.8552898799      -47.6668468688  TIP3      6955            0.0000000000
     45782      7156  TIP3      OH2           -16.4393697780      -11.9562050435      -45.2278359649  TIP3      6956            0.0000000000
     45783      7156  TIP3      H1            -16.7175250908      -11.1885355819      -45.7708414473  TIP3      6956            0.0000000000
     45784      7156  TIP3      H2            -17.0711712192      -12.6334427426      -45.4788289046  TIP3      6956            0.0000000000
     45785      7157  TIP3      OH2            -3.3232383682       -6.3273421226      -48.7501198007  TIP3      6957            0.0000000000
     45786      7157  TIP3      H1             -3.1566788501       -5.3743169988      -48.6689238144  TIP3      6957            0.0000000000
     45787      7157  TIP3      H2             -2.4329331562       -6.7042647265      -48.8598520861  TIP3      6957            0.0000000000
     45788      7158  TIP3      OH2           -20.3021942641       -9.5120845841      -36.3625777674  TIP3      6958            0.0000000000
     45789      7158  TIP3      H1            -20.7712586033       -9.6033246316      -37.2169458280  TIP3      6958            0.0000000000
     45790      7158  TIP3      H2            -20.2405099651      -10.4645784930      -36.1451042526  TIP3      6958            0.0000000000
     45791      7159  TIP3      OH2           -20.5330969825       -6.8495083371      -39.5200562619  TIP3      6959            0.0000000000
     45792      7159  TIP3      H1            -19.5847475441       -6.8692469420      -39.6409841128  TIP3      6959            0.0000000000
     45793      7159  TIP3      H2            -20.6909038979       -5.9707309179      -39.1380595680  TIP3      6959            0.0000000000
     45794      7160  TIP3      OH2            -2.3300163958       -6.0881759853      -33.8934981786  TIP3      6960            0.0000000000
     45795      7160  TIP3      H1             -2.4500261955       -7.0488861134      -33.9238660627  TIP3      6960            0.0000000000
     45796      7160  TIP3      H2             -3.2054019198       -5.8421954785      -33.5103857342  TIP3      6960            0.0000000000
     45797      7161  TIP3      OH2           -11.3928456621       -6.5390029176      -35.0705392251  TIP3      6961            0.0000000000
     45798      7161  TIP3      H1            -11.2992814186       -5.7175117788      -34.5280851694  TIP3      6961            0.0000000000
     45799      7161  TIP3      H2            -12.2335083673       -6.9139879903      -34.7568153106  TIP3      6961            0.0000000000
     45800      7162  TIP3      OH2           -10.9579336781       -2.8094360671      -45.2413159443  TIP3      6962            0.0000000000
     45801      7162  TIP3      H1            -11.0070199183       -2.8806544852      -46.2080477449  TIP3      6962            0.0000000000
     45802      7162  TIP3      H2            -10.9136071282       -1.8514919624      -45.0743371399  TIP3      6962            0.0000000000
     45803      7163  TIP3      OH2           -17.3110795562       -3.9188279308      -43.3966865674  TIP3      6963            0.0000000000
     45804      7163  TIP3      H1            -17.1512314021       -4.3394916097      -42.5239641595  TIP3      6963            0.0000000000
     45805      7163  TIP3      H2            -18.1647893158       -4.3269367497      -43.6273176402  TIP3      6963            0.0000000000
     45806      7164  TIP3      OH2            -7.9917107886       -3.5284552199      -48.2093134120  TIP3      6964            0.0000000000
     45807      7164  TIP3      H1             -7.4994817673       -4.2655875347      -48.6586650131  TIP3      6964            0.0000000000
     45808      7164  TIP3      H2             -7.8466141248       -3.8343899320      -47.2992392270  TIP3      6964            0.0000000000
     45809      7165  TIP3      OH2            -8.2006830350       -3.6408715299      -45.4262807037  TIP3      6965            0.0000000000
     45810      7165  TIP3      H1             -9.1645755004       -3.5951515938      -45.2891477721  TIP3      6965            0.0000000000
     45811      7165  TIP3      H2             -7.9579330516       -4.4147161194      -44.8995361078  TIP3      6965            0.0000000000
     45812      7166  TIP3      OH2            -5.1853923942      -14.6241087609      -33.4274996496  TIP3      6966            0.0000000000
     45813      7166  TIP3      H1             -5.6619894070      -14.1734846956      -34.1436137316  TIP3      6966            0.0000000000
     45814      7166  TIP3      H2             -5.2011045365      -15.5436702852      -33.7314052626  TIP3      6966            0.0000000000
     45815      7167  TIP3      OH2           -18.0952010093       -8.2027826442      -35.4180643846  TIP3      6967            0.0000000000
     45816      7167  TIP3      H1            -17.8621700318       -8.5714761627      -34.5366376181  TIP3      6967            0.0000000000
     45817      7167  TIP3      H2            -18.9503122347       -8.6301613358      -35.6268482902  TIP3      6967            0.0000000000
     45818      7168  TIP3      OH2           -15.3636132344      -19.7392270141      -39.4727488784  TIP3      6968            0.0000000000
     45819      7168  TIP3      H1            -16.2662359317      -19.8670796621      -39.8393513678  TIP3      6968            0.0000000000
     45820      7168  TIP3      H2            -15.4988735166      -18.9096768686      -38.9855619668  TIP3      6968            0.0000000000
     45821      7169  TIP3      OH2           -10.7201951098      -20.0756922598      -36.1128397243  TIP3      6969            0.0000000000
     45822      7169  TIP3      H1            -10.3285318547      -20.4981252633      -35.3256665110  TIP3      6969            0.0000000000
     45823      7169  TIP3      H2            -11.6925291858      -20.1895562009      -35.9658115456  TIP3      6969            0.0000000000
     45824      7170  TIP3      OH2            -7.4334093238      -16.2254977316      -35.2089744871  TIP3      6970            0.0000000000
     45825      7170  TIP3      H1             -7.9996820395      -16.4407071043      -34.4283384554  TIP3      6970            0.0000000000
     45826      7170  TIP3      H2             -7.6187160193      -15.2984250501      -35.4378054331  TIP3      6970            0.0000000000
     45827      7171  TIP3      OH2            -6.4344701223      -11.5231274071      -48.9175499919  TIP3      6971            0.0000000000
     45828      7171  TIP3      H1             -6.5745418099      -11.6519775468      -49.8707231096  TIP3      6971            0.0000000000
     45829      7171  TIP3      H2             -5.6640695371      -10.9388766119      -49.0557214346  TIP3      6971            0.0000000000
     45830      7172  TIP3      OH2           -11.0475509578      -17.4733666806      -48.7676434036  TIP3      6972            0.0000000000
     45831      7172  TIP3      H1            -11.3979753438      -17.5509224740      -47.8567837175  TIP3      6972            0.0000000000
     45832      7172  TIP3      H2            -11.3536286275      -18.3270680105      -49.0991962788  TIP3      6972            0.0000000000
     45833      7173  TIP3      OH2           -15.2576419329      -14.7591083398      -38.2033095590  TIP3      6973            0.0000000000
     45834      7173  TIP3      H1            -16.0046537343      -14.7749493581      -37.5789927227  TIP3      6973            0.0000000000
     45835      7173  TIP3      H2            -15.3143019899      -13.8576496209      -38.5901119094  TIP3      6973            0.0000000000
     45836      7174  TIP3      OH2           -15.3022643308      -14.6562857344      -43.3519092768  TIP3      6974            0.0000000000
     45837      7174  TIP3      H1            -16.2421284088      -14.9028486855      -43.4870469803  TIP3      6974            0.0000000000
     45838      7174  TIP3      H2            -14.9244798469      -14.9395615857      -44.2098260095  TIP3      6974            0.0000000000
     45839      7175  TIP3      OH2            -9.7881193461      -14.1453428034      -44.6034978992  TIP3      6975            0.0000000000
     45840      7175  TIP3      H1            -10.1682137436      -13.3113955063      -44.9582436127  TIP3      6975            0.0000000000
     45841      7175  TIP3      H2             -9.0805562717      -14.3179556616      -45.2501012050  TIP3      6975            0.0000000000
     45842      7176  TIP3      OH2           -10.7278151036      -13.9379406283      -33.1497735140  TIP3      6976            0.0000000000
     45843      7176  TIP3      H1            -11.2539209377      -14.7126970013      -32.8380745816  TIP3      6976            0.0000000000
     45844      7176  TIP3      H2             -9.8909152999      -14.0574346387      -32.6713061616  TIP3      6976            0.0000000000
     45845      7177  TIP3      OH2            -8.7429121413      -14.6614342213      -41.7393409214  TIP3      6977            0.0000000000
     45846      7177  TIP3      H1             -9.0322146291      -14.0926528538      -42.4734747673  TIP3      6977            0.0000000000
     45847      7177  TIP3      H2             -8.6528556313      -15.5067068298      -42.2213527291  TIP3      6977            0.0000000000
     45848      7178  TIP3      OH2           -17.6417695246      -14.5197949619      -36.5428926591  TIP3      6978            0.0000000000
     45849      7178  TIP3      H1            -17.5575699577      -14.1135095621      -35.6634038537  TIP3      6978            0.0000000000
     45850      7178  TIP3      H2            -18.0957956564      -15.3538793471      -36.3362061893  TIP3      6978            0.0000000000
     45851      7179  TIP3      OH2           -14.2400885531      -17.1340975984      -49.6768629683  TIP3      6979            0.0000000000
     45852      7179  TIP3      H1            -14.6842051573      -17.5370398375      -48.9012209877  TIP3      6979            0.0000000000
     45853      7179  TIP3      H2            -14.9599892717      -16.7383926318      -50.1732877800  TIP3      6979            0.0000000000
     45854      7180  TIP3      OH2           -20.9666968622      -17.3896804358      -42.5643383420  TIP3      6980            0.0000000000
     45855      7180  TIP3      H1            -20.3156312850      -17.4491329114      -41.8378771161  TIP3      6980            0.0000000000
     45856      7180  TIP3      H2            -20.5297268662      -17.7962992407      -43.3306531509  TIP3      6980            0.0000000000
     45857      7181  TIP3      OH2           -19.7005692430      -16.6893533723      -47.1773053774  TIP3      6981            0.0000000000
     45858      7181  TIP3      H1            -19.2073498507      -16.0757307272      -47.7552744598  TIP3      6981            0.0000000000
     45859      7181  TIP3      H2            -20.3884045912      -16.0618724524      -46.8738406284  TIP3      6981            0.0000000000
     45860      7182  TIP3      OH2            -9.5537745483      -13.0744855473      -37.1865912420  TIP3      6982            0.0000000000
     45861      7182  TIP3      H1             -9.1706705239      -13.7604141797      -37.7705286579  TIP3      6982            0.0000000000
     45862      7182  TIP3      H2            -10.0191546620      -13.6023604741      -36.5138464732  TIP3      6982            0.0000000000
     45863      7183  TIP3      OH2           -12.7440948739      -17.0897196605      -42.3510414010  TIP3      6983            0.0000000000
     45864      7183  TIP3      H1            -13.6787276129      -17.0917434994      -42.0616020591  TIP3      6983            0.0000000000
     45865      7183  TIP3      H2            -12.2649840349      -17.2678408851      -41.5272351334  TIP3      6983            0.0000000000
     45866      7184  TIP3      OH2           -17.9382788796      -15.5365200164      -43.4770485587  TIP3      6984            0.0000000000
     45867      7184  TIP3      H1            -18.8222511258      -15.3872370355      -43.8711521856  TIP3      6984            0.0000000000
     45868      7184  TIP3      H2            -17.6561350092      -16.3738384696      -43.8865130639  TIP3      6984            0.0000000000
     45869      7185  TIP3      OH2           -14.2922900760      -15.4927747304      -45.8370703410  TIP3      6985            0.0000000000
     45870      7185  TIP3      H1            -13.3348412040      -15.3969746679      -45.6721685975  TIP3      6985            0.0000000000
     45871      7185  TIP3      H2            -14.5248122811      -14.8301003398      -46.5170695229  TIP3      6985            0.0000000000
     45872      7186  TIP3      OH2            -8.3425444421      -17.8574652256      -39.1123868730  TIP3      6986            0.0000000000
     45873      7186  TIP3      H1             -9.0265176008      -17.8119481485      -38.4057611510  TIP3      6986            0.0000000000
     45874      7186  TIP3      H2             -8.8527239272      -18.1166953932      -39.8934105644  TIP3      6986            0.0000000000
     45875      7187  TIP3      OH2           -15.5677804899      -14.3035532364      -48.2443083371  TIP3      6987            0.0000000000
     45876      7187  TIP3      H1            -16.1626242716      -14.6592311172      -48.9071997317  TIP3      6987            0.0000000000
     45877      7187  TIP3      H2            -14.7605623203      -14.1011160453      -48.7401100681  TIP3      6987            0.0000000000
     45878      7188  TIP3      OH2            -5.1418561046       -2.2195547999      -32.7867887064  TIP3      6988            0.0000000000
     45879      7188  TIP3      H1             -4.8779582121       -1.8325176638      -33.6381025802  TIP3      6988            0.0000000000
     45880      7188  TIP3      H2             -4.4191307134       -1.8993990924      -32.2260552297  TIP3      6988            0.0000000000
     45881      7189  TIP3      OH2           -17.4617957244       -9.7219650085      -33.2367453396  TIP3      6989            0.0000000000
     45882      7189  TIP3      H1            -16.7445285069       -9.5051636076      -32.6179118064  TIP3      6989            0.0000000000
     45883      7189  TIP3      H2            -18.2313931381       -9.6717081530      -32.6245677826  TIP3      6989            0.0000000000
     45884      7190  TIP3      OH2           -11.4679605691      -14.3384881184      -40.4560742307  TIP3      6990            0.0000000000
     45885      7190  TIP3      H1            -10.8680714619      -14.8717808474      -40.9904191645  TIP3      6990            0.0000000000
     45886      7190  TIP3      H2            -11.6122483984      -14.8893326891      -39.6749364433  TIP3      6990            0.0000000000
     45887      7191  TIP3      OH2           -16.4582729992      -18.1962446563      -44.0190870615  TIP3      6991            0.0000000000
     45888      7191  TIP3      H1            -16.7674077174      -19.1212144266      -44.0339961449  TIP3      6991            0.0000000000
     45889      7191  TIP3      H2            -15.6626969334      -18.2625957386      -44.5597875661  TIP3      6991            0.0000000000
     45890      7192  TIP3      OH2           -12.8271606480      -16.0150280517      -38.0427086097  TIP3      6992            0.0000000000
     45891      7192  TIP3      H1            -13.6523082847      -15.4934857227      -37.9544322794  TIP3      6992            0.0000000000
     45892      7192  TIP3      H2            -12.2722676279      -15.6597754837      -37.3210784222  TIP3      6992            0.0000000000
     45893      7193  TIP3      OH2           -12.2296586905       -9.7940550775      -46.3335348667  TIP3      6993            0.0000000000
     45894      7193  TIP3      H1            -13.0339666766      -10.2490137438      -46.6624303772  TIP3      6993            0.0000000000
     45895      7193  TIP3      H2            -12.4516002404       -9.6599400741      -45.3904235090  TIP3      6993            0.0000000000
     45896      7194  TIP3      OH2            -5.0497601784      -10.5845330084      -37.5416549794  TIP3      6994            0.0000000000
     45897      7194  TIP3      H1             -4.4887605286      -10.1008472289      -38.1751560961  TIP3      6994            0.0000000000
     45898      7194  TIP3      H2             -5.9107198194      -10.5425400522      -38.0048726547  TIP3      6994            0.0000000000
     45899      7195  TIP3      OH2            -8.4538785189      -16.9502276978      -47.9983374436  TIP3      6995            0.0000000000
     45900      7195  TIP3      H1             -9.3679183046      -16.7956075518      -48.2764501550  TIP3      6995            0.0000000000
     45901      7195  TIP3      H2             -8.0995227673      -16.0541696270      -47.8356280759  TIP3      6995            0.0000000000
     45902      7196  TIP3      OH2           -10.7995941764       -9.5142221089      -35.1263394701  TIP3      6996            0.0000000000
     45903      7196  TIP3      H1            -11.0780887592       -9.9477634989      -34.3110540499  TIP3      6996            0.0000000000
     45904      7196  TIP3      H2            -10.9819533140       -8.5865419139      -34.9688983399  TIP3      6996            0.0000000000
     45905      7197  TIP3      OH2            -7.6749023498      -15.0116401559      -46.4861138871  TIP3      6997            0.0000000000
     45906      7197  TIP3      H1             -6.7845561202      -15.1997920784      -46.1168249913  TIP3      6997            0.0000000000
     45907      7197  TIP3      H2             -7.5602329856      -14.2238450494      -47.0395365733  TIP3      6997            0.0000000000
     45908      7198  TIP3      OH2           -17.0742417039      -10.3654826594      -40.5120281545  TIP3      6998            0.0000000000
     45909      7198  TIP3      H1            -16.4669375838      -10.5014404538      -41.2660144348  TIP3      6998            0.0000000000
     45910      7198  TIP3      H2            -17.0913648322      -11.2545957827      -40.1069786923  TIP3      6998            0.0000000000
     45911      7199  TIP3      OH2           -10.0992299956       -8.3148719683      -47.2959363858  TIP3      6999            0.0000000000
     45912      7199  TIP3      H1            -10.4775214341       -7.4743836482      -46.9675291085  TIP3      6999            0.0000000000
     45913      7199  TIP3      H2            -10.8568086013       -8.9168804647      -47.1296773240  TIP3      6999            0.0000000000
     45914      7200  TIP3      OH2           -20.1416655494      -11.9927435025      -35.2825041484  TIP3      7000            0.0000000000
     45915      7200  TIP3      H1            -19.9738866233      -12.4380889408      -34.4296059575  TIP3      7000            0.0000000000
     45916      7200  TIP3      H2            -20.7603585091      -12.6016363866      -35.7242996828  TIP3      7000            0.0000000000
     45917      7201  TIP3      OH2           -13.1236677739      -12.4464350360      -33.0976758334  TIP3      7001            0.0000000000
     45918      7201  TIP3      H1            -13.4448051300      -12.7422035341      -33.9611377587  TIP3      7001            0.0000000000
     45919      7201  TIP3      H2            -12.1972545405      -12.7616080932      -33.1089234420  TIP3      7001            0.0000000000
     45920      7202  TIP3      OH2            -8.4414376786       -7.0988232371      -35.1494840087  TIP3      7002            0.0000000000
     45921      7202  TIP3      H1             -9.3646535017       -6.9151609895      -35.3875771699  TIP3      7002            0.0000000000
     45922      7202  TIP3      H2             -8.4728606126       -6.8006034774      -34.2202130917  TIP3      7002            0.0000000000
     45923      7203  TIP3      OH2            -2.7336851256      -14.9220583822      -46.7316295809  TIP3      7003            0.0000000000
     45924      7203  TIP3      H1             -3.3219407445      -15.1854865400      -47.4741785790  TIP3      7003            0.0000000000
     45925      7203  TIP3      H2             -2.6789681142      -13.9756990392      -46.9863139813  TIP3      7003            0.0000000000
     45926      7204  TIP3      OH2            -2.7853466794       -9.0528638173      -33.9603851191  TIP3      7004            0.0000000000
     45927      7204  TIP3      H1             -3.6784732233       -8.8327107058      -34.3239821543  TIP3      7004            0.0000000000
     45928      7204  TIP3      H2             -2.2402190272       -9.1060485218      -34.7727094722  TIP3      7004            0.0000000000
     45929      7205  TIP3      OH2            -4.4654120676       -6.1093503328      -46.3598379916  TIP3      7005            0.0000000000
     45930      7205  TIP3      H1             -4.8648483450       -6.9317493347      -46.0622958729  TIP3      7005            0.0000000000
     45931      7205  TIP3      H2             -4.1918634053       -6.3089128626      -47.2750365382  TIP3      7005            0.0000000000
     45932      7206  TIP3      OH2            -7.2731142360      -11.2712279217      -39.2597162865  TIP3      7006            0.0000000000
     45933      7206  TIP3      H1             -8.2136480870      -11.4788718197      -39.3724205297  TIP3      7006            0.0000000000
     45934      7206  TIP3      H2             -6.8428047403      -12.0299692726      -39.6980849903  TIP3      7006            0.0000000000
     45935      7207  TIP3      OH2           -14.7629753006       -6.9225032245      -43.0982964169  TIP3      7007            0.0000000000
     45936      7207  TIP3      H1            -14.2550748450       -6.1408869900      -43.3811380928  TIP3      7007            0.0000000000
     45937      7207  TIP3      H2            -15.6214029123       -6.7141196820      -43.5022978507  TIP3      7007            0.0000000000
     45938      7208  TIP3      OH2           -18.9300291598      -12.1449306305      -48.5618040639  TIP3      7008            0.0000000000
     45939      7208  TIP3      H1            -18.3914534886      -11.4394116531      -48.1652983308  TIP3      7008            0.0000000000
     45940      7208  TIP3      H2            -19.8352913941      -11.8250892684      -48.3432986335  TIP3      7008            0.0000000000
     45941      7209  TIP3      OH2           -13.3315747084       -9.2737535374      -43.6033997583  TIP3      7009            0.0000000000
     45942      7209  TIP3      H1            -13.6620508108       -8.3586279102      -43.5649014415  TIP3      7009            0.0000000000
     45943      7209  TIP3      H2            -14.0679628467       -9.7784827556      -43.2088150385  TIP3      7009            0.0000000000
     45944      7210  TIP3      OH2           -12.8930002069       -5.1241962682      -37.2421770742  TIP3      7010            0.0000000000
     45945      7210  TIP3      H1            -12.4440662496       -4.3001780063      -37.5130969236  TIP3      7010            0.0000000000
     45946      7210  TIP3      H2            -12.2673101832       -5.4199772413      -36.5496602775  TIP3      7010            0.0000000000
     45947      7211  TIP3      OH2           -14.6589129720       -4.2974422359      -44.0598265854  TIP3      7011            0.0000000000
     45948      7211  TIP3      H1            -15.6255433900       -4.1546042881      -43.9611452234  TIP3      7011            0.0000000000
     45949      7211  TIP3      H2            -14.2960715520       -3.4440277540      -43.7558688041  TIP3      7011            0.0000000000
     45950      7212  TIP3      OH2            -9.4146954937       -9.1048960533      -37.6340472177  TIP3      7012            0.0000000000
     45951      7212  TIP3      H1             -9.6772822324       -9.2827114110      -36.7063140208  TIP3      7012            0.0000000000
     45952      7212  TIP3      H2             -8.7392225739       -9.7868597211      -37.7921107662  TIP3      7012            0.0000000000
     45953      7213  TIP3      OH2            -7.1163479338       -8.0566521589      -48.4257016795  TIP3      7013            0.0000000000
     45954      7213  TIP3      H1             -6.7796134197       -8.5517710775      -47.6612940157  TIP3      7013            0.0000000000
     45955      7213  TIP3      H2             -8.0582321659       -8.2462521583      -48.3486754631  TIP3      7013            0.0000000000
     45956      7214  TIP3      OH2            -6.5463413727       -4.5116396422      -35.1270755750  TIP3      7014            0.0000000000
     45957      7214  TIP3      H1             -7.2409141106       -5.0035695068      -35.6043944291  TIP3      7014            0.0000000000
     45958      7214  TIP3      H2             -6.3668517948       -3.8107811734      -35.7891090844  TIP3      7014            0.0000000000
     45959      7215  TIP3      OH2            -2.5606480302       -3.6129506194      -48.3075684350  TIP3      7015            0.0000000000
     45960      7215  TIP3      H1             -1.8586572020       -2.9587129971      -48.4661852713  TIP3      7015            0.0000000000
     45961      7215  TIP3      H2             -3.2821174812       -3.0306645985      -47.9694263559  TIP3      7015            0.0000000000
     45962      7216  TIP3      OH2           -18.4869303296      -17.2589703618      -35.7388964931  TIP3      7016            0.0000000000
     45963      7216  TIP3      H1            -19.3979142067      -16.9058316908      -35.7587476780  TIP3      7016            0.0000000000
     45964      7216  TIP3      H2            -18.6011196319      -18.1013871223      -35.2733257875  TIP3      7016            0.0000000000
     45965      7217  TIP3      OH2            -6.2438067810       -9.3743359824      -46.2736798430  TIP3      7017            0.0000000000
     45966      7217  TIP3      H1             -6.4823480175      -10.1883605210      -45.7908644861  TIP3      7017            0.0000000000
     45967      7217  TIP3      H2             -5.2916662120       -9.3382807150      -46.1058576054  TIP3      7017            0.0000000000
     45968      7218  TIP3      OH2           -18.8345199926       -5.4722044649      -37.3224935089  TIP3      7018            0.0000000000
     45969      7218  TIP3      H1            -18.6134815412       -6.4088904709      -37.2762744702  TIP3      7018            0.0000000000
     45970      7218  TIP3      H2            -18.6448182375       -5.1728376344      -36.4234101438  TIP3      7018            0.0000000000
     45971      7219  TIP3      OH2           -14.1087509561       -7.4003179290      -47.5867114141  TIP3      7019            0.0000000000
     45972      7219  TIP3      H1            -13.8619201866       -7.9389351247      -46.8291339035  TIP3      7019            0.0000000000
     45973      7219  TIP3      H2            -14.0649798921       -6.4806432892      -47.2513818056  TIP3      7019            0.0000000000
     45974      7220  TIP3      OH2           -17.6120041634      -10.1883603256      -47.1061826301  TIP3      7020            0.0000000000
     45975      7220  TIP3      H1            -18.3043601964       -9.7741318141      -46.5574261341  TIP3      7020            0.0000000000
     45976      7220  TIP3      H2            -17.0809395980       -9.4086169268      -47.3558549596  TIP3      7020            0.0000000000
     45977      7221  TIP3      OH2            -9.7570409848      -17.4833666412      -36.7683696572  TIP3      7021            0.0000000000
     45978      7221  TIP3      H1             -9.0406603160      -17.4232912879      -36.1272885800  TIP3      7021            0.0000000000
     45979      7221  TIP3      H2            -10.1400702104      -18.3598144676      -36.5646171397  TIP3      7021            0.0000000000
     45980      7222  TIP3      OH2            -9.0362166778      -17.9182584598      -45.6389843312  TIP3      7022            0.0000000000
     45981      7222  TIP3      H1             -8.7885923743      -17.4636389913      -46.4737987133  TIP3      7022            0.0000000000
     45982      7222  TIP3      H2             -8.4304503147      -17.4737111186      -45.0388978233  TIP3      7022            0.0000000000
     45983      7223  TIP3      OH2           -11.3159309018       -5.7537597544      -46.8960452786  TIP3      7023            0.0000000000
     45984      7223  TIP3      H1            -12.1394360773       -5.2470856344      -46.7912665565  TIP3      7023            0.0000000000
     45985      7223  TIP3      H2            -10.7986127524       -5.1998769185      -47.4892415798  TIP3      7023            0.0000000000
     45986      7224  TIP3      OH2           -11.7743345933      -16.1701447463      -44.8625379321  TIP3      7024            0.0000000000
     45987      7224  TIP3      H1            -11.0000727560      -15.5740357934      -44.8305967996  TIP3      7024            0.0000000000
     45988      7224  TIP3      H2            -12.0419252749      -16.2825967779      -43.9312282219  TIP3      7024            0.0000000000
     45989      7225  TIP3      OH2           -11.2300725550      -15.1365169595      -35.6717434623  TIP3      7025            0.0000000000
     45990      7225  TIP3      H1            -11.1550019108      -14.5813563030      -34.8737835864  TIP3      7025            0.0000000000
     45991      7225  TIP3      H2            -10.5668533324      -15.8320633270      -35.5788449553  TIP3      7025            0.0000000000
     45992      7226  TIP3      OH2           -10.9327055133      -19.1102330461      -43.9817743271  TIP3      7026            0.0000000000
     45993      7226  TIP3      H1            -11.2554489509      -18.4515146356      -43.3455650619  TIP3      7026            0.0000000000
     45994      7226  TIP3      H2            -10.2379410268      -18.5635798043      -44.4282664206  TIP3      7026            0.0000000000
     45995      7227  TIP3      OH2           -13.9556572993       -4.7004425410      -46.8127110021  TIP3      7027            0.0000000000
     45996      7227  TIP3      H1            -13.7746623965       -3.8856497682      -47.3358705941  TIP3      7027            0.0000000000
     45997      7227  TIP3      H2            -14.2111171062       -4.3451509914      -45.9397921663  TIP3      7027            0.0000000000
     45998      7228  TIP3      OH2           -15.2704416290      -17.9666826443      -47.2313707007  TIP3      7028            0.0000000000
     45999      7228  TIP3      H1            -15.3162743985      -17.0795922660      -46.8352161734  TIP3      7028            0.0000000000
     46000      7228  TIP3      H2            -14.3697041420      -18.2390211111      -46.9790468141  TIP3      7028            0.0000000000
     46001      7229  TIP3      OH2            -5.0528476800      -17.2696853105      -34.8291937783  TIP3      7029            0.0000000000
     46002      7229  TIP3      H1             -5.9795685396      -16.9523410731      -34.9580724689  TIP3      7029            0.0000000000
     46003      7229  TIP3      H2             -4.7510883118      -17.2827738041      -35.7532538828  TIP3      7029            0.0000000000
     46004      7230  TIP3      OH2            -6.4342039436      -13.4781342006      -40.8171755076  TIP3      7030            0.0000000000
     46005      7230  TIP3      H1             -7.2580928129      -13.9253086201      -41.0976941636  TIP3      7030            0.0000000000
     46006      7230  TIP3      H2             -5.9554845391      -14.1677951783      -40.3059786572  TIP3      7030            0.0000000000
     46007      7231  TIP3      OH2           -16.9951499859       -7.6061583464      -48.1150464233  TIP3      7031            0.0000000000
     46008      7231  TIP3      H1            -16.3652077556       -6.9077619344      -47.9108815721  TIP3      7031            0.0000000000
     46009      7231  TIP3      H2            -16.5767364670       -7.9746740861      -48.9239011199  TIP3      7031            0.0000000000
     46010      7232  TIP3      OH2           -18.6710790120      -14.8798107134      -48.9567136066  TIP3      7032            0.0000000000
     46011      7232  TIP3      H1            -18.6830449577      -13.9099750400      -48.8639723143  TIP3      7032            0.0000000000
     46012      7232  TIP3      H2            -19.5071954003      -15.0800408790      -49.4160765202  TIP3      7032            0.0000000000
     46013      7233  TIP3      OH2            -5.3749679052       -4.2206742741      -39.1511703502  TIP3      7033            0.0000000000
     46014      7233  TIP3      H1             -5.4632957220       -3.5396577733      -39.8474894899  TIP3      7033            0.0000000000
     46015      7233  TIP3      H2             -4.4119713594       -4.1650281427      -38.9770094801  TIP3      7033            0.0000000000
     46016      7234  TIP3      OH2           -17.8830410495      -20.0992557216      -40.3393995837  TIP3      7034            0.0000000000
     46017      7234  TIP3      H1            -18.0751091651      -20.0820462525      -41.3027785835  TIP3      7034            0.0000000000
     46018      7234  TIP3      H2            -18.2955996399      -20.9531263982      -40.0900349587  TIP3      7034            0.0000000000
     46019      7235  TIP3      OH2           -18.9201501400       -6.1984217863      -44.2208172925  TIP3      7035            0.0000000000
     46020      7235  TIP3      H1            -19.7762364297       -5.7423864846      -44.2200090250  TIP3      7035            0.0000000000
     46021      7235  TIP3      H2            -18.4482936423       -5.7015142200      -44.8945330984  TIP3      7035            0.0000000000
     46022      7236  TIP3      OH2           -19.7226143629       -3.5298426218      -32.9178236180  TIP3      7036            0.0000000000
     46023      7236  TIP3      H1            -19.1259723180       -3.7235101216      -32.1706679720  TIP3      7036            0.0000000000
     46024      7236  TIP3      H2            -20.1209138566       -4.3992015558      -33.0959964745  TIP3      7036            0.0000000000
     46025      7237  TIP3      OH2           -15.0426767784       -4.6076317928      -31.3068290146  TIP3      7037            0.0000000000
     46026      7237  TIP3      H1            -14.2844068749       -5.1064834989      -30.9731472240  TIP3      7037            0.0000000000
     46027      7237  TIP3      H2            -15.0645904312       -4.8870285589      -32.2436822497  TIP3      7037            0.0000000000
     46028      7238  TIP3      OH2           -10.9829817621       -5.1542417055      -49.9819919526  TIP3      7038            0.0000000000
     46029      7238  TIP3      H1            -11.6068310968       -5.8035658882      -49.6385855965  TIP3      7038            0.0000000000
     46030      7238  TIP3      H2            -10.1906120882       -5.6878127502      -50.1155855135  TIP3      7038            0.0000000000
     46031      7239  TIP3      OH2            -8.5392983933       -6.2244978531      -32.5574743484  TIP3      7039            0.0000000000
     46032      7239  TIP3      H1             -8.8534441498       -7.1113570706      -32.2807340206  TIP3      7039            0.0000000000
     46033      7239  TIP3      H2             -7.7704676284       -6.1044345127      -31.9652119072  TIP3      7039            0.0000000000
     46034      7240  TIP3      OH2            -6.7481351795       -5.4625980477      -49.3063347069  TIP3      7040            0.0000000000
     46035      7240  TIP3      H1             -6.1889119304       -6.1861583396      -48.9773731087  TIP3      7040            0.0000000000
     46036      7240  TIP3      H2             -6.1054220525       -5.0138237693      -49.9299067462  TIP3      7040            0.0000000000
     46037      7241  TIP3      OH2           -19.8098102187       -9.7551781317      -31.9210451913  TIP3      7041            0.0000000000
     46038      7241  TIP3      H1            -19.6478294915      -10.6677189552      -32.2196181549  TIP3      7041            0.0000000000
     46039      7241  TIP3      H2            -20.5518646394       -9.4968389196      -32.4926744637  TIP3      7041            0.0000000000
     46040      7242  TIP3      OH2           -15.3830823354       -9.4670035466      -49.8075391505  TIP3      7042            0.0000000000
     46041      7242  TIP3      H1            -15.3016996636      -10.2320923216      -49.2264533711  TIP3      7042            0.0000000000
     46042      7242  TIP3      H2            -14.7024915677       -9.5679091260      -50.4812223571  TIP3      7042            0.0000000000
     46043      7243  TIP3      OH2           -13.0924952976       -9.7690252998      -32.5249361714  TIP3      7043            0.0000000000
     46044      7243  TIP3      H1            -13.4306074048       -9.4580811643      -33.3835272999  TIP3      7043            0.0000000000
     46045      7243  TIP3      H2            -13.0189015925      -10.7481013231      -32.6364525181  TIP3      7043            0.0000000000
     46046      7244  TIP3      OH2            -7.4002395027       -9.9066196976      -35.1422748626  TIP3      7044            0.0000000000
     46047      7244  TIP3      H1             -6.6099730121       -9.3263284990      -35.2018997737  TIP3      7044            0.0000000000
     46048      7244  TIP3      H2             -8.0965525765       -9.2364529350      -35.1048199929  TIP3      7044            0.0000000000
     46049      7245  TIP3      OH2           -18.8841836171      -12.5270674380      -32.5398669385  TIP3      7045            0.0000000000
     46050      7245  TIP3      H1            -18.4725339393      -13.3928416446      -32.6282998709  TIP3      7045            0.0000000000
     46051      7245  TIP3      H2            -19.1233112220      -12.5247375738      -31.5994330389  TIP3      7045            0.0000000000
     46052      7246  TIP3      OH2           -14.2810922884      -11.4129179887      -47.4941585455  TIP3      7046            0.0000000000
     46053      7246  TIP3      H1            -14.7565353989      -11.9131851704      -46.8106543463  TIP3      7046            0.0000000000
     46054      7246  TIP3      H2            -13.9336311956      -12.1295426641      -48.0693903694  TIP3      7046            0.0000000000
     46055      7247  TIP3      OH2           -14.9960864007      -13.5922440032      -35.1784585953  TIP3      7047            0.0000000000
     46056      7247  TIP3      H1            -15.5858020055      -12.8632367415      -34.9309580436  TIP3      7047            0.0000000000
     46057      7247  TIP3      H2            -14.5914654126      -13.2382098139      -35.9875832830  TIP3      7047            0.0000000000
     46058      7248  TIP3      OH2           -13.0814845585      -13.1785386078      -49.1619766769  TIP3      7048            0.0000000000
     46059      7248  TIP3      H1            -13.3153261416      -13.3071883155      -50.0979500619  TIP3      7048            0.0000000000
     46060      7248  TIP3      H2            -12.1071536839      -13.1036496005      -49.1397526718  TIP3      7048            0.0000000000
     46061      7249  TIP3      OH2            -9.9144917585      -11.0167150997      -31.8459302002  TIP3      7049            0.0000000000
     46062      7249  TIP3      H1             -8.9560377638      -11.0320242907      -31.9492050474  TIP3      7049            0.0000000000
     46063      7249  TIP3      H2            -10.0930637520      -11.7829185423      -31.2772183169  TIP3      7049            0.0000000000
     46064      7250  TIP3      OH2            -4.0685432804      -11.1212467905       50.2286836098  TIP3      7050            0.0000000000
     46065      7250  TIP3      H1             -4.0138810378      -11.3515109597       49.3025752796  TIP3      7050            0.0000000000
     46066      7250  TIP3      H2             -3.8709126216      -10.1545459870       50.1267966702  TIP3      7050            0.0000000000
     46067      7251  TIP3      OH2           -14.5877182384      -16.2068410487      -34.1288962831  TIP3      7051            0.0000000000
     46068      7251  TIP3      H1            -14.4691854162      -16.9159830519      -34.7885284327  TIP3      7051            0.0000000000
     46069      7251  TIP3      H2            -14.6308377005      -15.3962506259      -34.6763107041  TIP3      7051            0.0000000000
     46070      7252  TIP3      OH2           -14.1812308162      -17.8249280554      -36.5727734903  TIP3      7052            0.0000000000
     46071      7252  TIP3      H1            -13.6736209373      -17.3598150614      -37.2800883374  TIP3      7052            0.0000000000
     46072      7252  TIP3      H2            -15.0752979203      -17.9023095785      -36.9778942637  TIP3      7052            0.0000000000
     46073      7253  TIP3      OH2           -12.6548142551      -12.3260780876      -36.3361226903  TIP3      7053            0.0000000000
     46074      7253  TIP3      H1            -11.8872315538      -12.5135077709      -36.8867793748  TIP3      7053            0.0000000000
     46075      7253  TIP3      H2            -12.9932409052      -11.4944980230      -36.6734213244  TIP3      7053            0.0000000000
     46076      7254  TIP3      OH2            -8.2454086981      -14.5874047226      -31.3549947538  TIP3      7054            0.0000000000
     46077      7254  TIP3      H1             -8.0104909756      -15.5205734244      -31.4611597761  TIP3      7054            0.0000000000
     46078      7254  TIP3      H2             -7.3821842716      -14.1407202815      -31.3355812925  TIP3      7054            0.0000000000
     46079      7255  TIP3      OH2            -6.9087069796      -11.7908234996      -33.2023007310  TIP3      7055            0.0000000000
     46080      7255  TIP3      H1             -7.1579132941      -11.0689482713      -33.8193338490  TIP3      7055            0.0000000000
     46081      7255  TIP3      H2             -5.9489763953      -11.8214139500      -33.3904277010  TIP3      7055            0.0000000000
     46082      7256  TIP3      OH2           -16.1244721820      -14.9564698091      -32.2073835391  TIP3      7056            0.0000000000
     46083      7256  TIP3      H1            -16.8935729374      -15.5346753670      -32.3744817016  TIP3      7056            0.0000000000
     46084      7256  TIP3      H2            -15.4701661551      -15.3257156637      -32.8287956131  TIP3      7056            0.0000000000
     46085      7257  TIP3      OH2           -13.3953421580      -20.3880917127      -36.1866597072  TIP3      7057            0.0000000000
     46086      7257  TIP3      H1            -13.5784627590      -19.4259683883      -36.2823530732  TIP3      7057            0.0000000000
     46087      7257  TIP3      H2            -14.1419933002      -20.7558425242      -36.6877358419  TIP3      7057            0.0000000000
     46088      7258  TIP3      OH2           -12.1233574246      -16.0603811180      -32.5585808474  TIP3      7058            0.0000000000
     46089      7258  TIP3      H1            -12.4380609207      -16.2914237988      -31.6628196494  TIP3      7058            0.0000000000
     46090      7258  TIP3      H2            -12.9056414594      -16.2623227439      -33.0993553130  TIP3      7058            0.0000000000
     46091      7259  TIP3      OH2            -9.4011422803      -16.9131800056      -33.4637148728  TIP3      7059            0.0000000000
     46092      7259  TIP3      H1            -10.3665447974      -16.8608423837      -33.3570417380  TIP3      7059            0.0000000000
     46093      7259  TIP3      H2             -9.1382993082      -17.5561205407      -32.7768531490  TIP3      7059            0.0000000000
     46094      7260  TIP3      OH2            -7.8206956648      -18.2962594109      -31.5677547882  TIP3      7060            0.0000000000
     46095      7260  TIP3      H1             -7.8677758183      -19.2744265253      -31.5368239820  TIP3      7060            0.0000000000
     46096      7260  TIP3      H2             -8.0682513537      -18.0041389670      -30.6683347536  TIP3      7060            0.0000000000
     46097      7261  TIP3      OH2           -18.0512777056      -17.0165966110      -32.4505513185  TIP3      7061            0.0000000000
     46098      7261  TIP3      H1            -17.8019341455      -17.7520226932      -33.0368229288  TIP3      7061            0.0000000000
     46099      7261  TIP3      H2            -18.1366790446      -17.4660492356      -31.5861762110  TIP3      7061            0.0000000000
     46100      7262  TIP3      OH2           -13.1788632850      -20.9934059173      -33.4850682454  TIP3      7062            0.0000000000
     46101      7262  TIP3      H1            -12.4999258262      -21.6974118231      -33.5007742141  TIP3      7062            0.0000000000
     46102      7262  TIP3      H2            -13.2943242733      -20.8537196415      -34.4454837181  TIP3      7062            0.0000000000
     46103      7263  TIP3      OH2           -12.8168706054      -19.3821046579      -31.3665510244  TIP3      7063            0.0000000000
     46104      7263  TIP3      H1            -12.9907253596      -19.8877794411      -32.1991487664  TIP3      7063            0.0000000000
     46105      7263  TIP3      H2            -13.4159990486      -18.6171859535      -31.4676711239  TIP3      7063            0.0000000000
     46106      7264  TIP3      OH2           -13.3406586176       -2.4669870403      -48.2041376014  TIP3      7064            0.0000000000
     46107      7264  TIP3      H1            -12.3697521860       -2.3672309860      -48.1291222728  TIP3      7064            0.0000000000
     46108      7264  TIP3      H2            -13.5448467105       -1.8455945740      -48.9127956099  TIP3      7064            0.0000000000
     46109      7265  TIP3      OH2           -19.7046125007       -7.9001147646      -48.6382023269  TIP3      7065            0.0000000000
     46110      7265  TIP3      H1            -18.7387223733       -7.7967796026      -48.4960637413  TIP3      7065            0.0000000000
     46111      7265  TIP3      H2            -19.7211581160       -8.5022617723      -49.3977507561  TIP3      7065            0.0000000000
     46112      7266  TIP3      OH2           -21.0060991018       -2.5310865241      -43.7444122663  TIP3      7066            0.0000000000
     46113      7266  TIP3      H1            -21.7446757423       -3.0090049969      -44.1916680787  TIP3      7066            0.0000000000
     46114      7266  TIP3      H2            -20.7784059318       -3.1766124016      -43.0524729663  TIP3      7066            0.0000000000
     46115      7267  TIP3      OH2           -20.0245939563       -4.4155615946      -41.8824402649  TIP3      7067            0.0000000000
     46116      7267  TIP3      H1            -20.6332943566       -5.1693771227      -41.7248736213  TIP3      7067            0.0000000000
     46117      7267  TIP3      H2            -20.0217175738       -4.0255553852      -40.9988913753  TIP3      7067            0.0000000000
     46118      7268  TIP3      OH2            -2.6709419572       -3.5407763079      -38.9562560750  TIP3      7068            0.0000000000
     46119      7268  TIP3      H1             -2.6207751686       -3.4384916045      -37.9905910621  TIP3      7068            0.0000000000
     46120      7268  TIP3      H2             -1.9281617109       -3.0137467163      -39.2569851229  TIP3      7068            0.0000000000
     46121      7269  TIP3      OH2            -3.0778295718       -3.9839577693      -36.0012261950  TIP3      7069            0.0000000000
     46122      7269  TIP3      H1             -3.5515570002       -4.7514033895      -36.3892823733  TIP3      7069            0.0000000000
     46123      7269  TIP3      H2             -2.5895485789       -4.4396028315      -35.2927543102  TIP3      7069            0.0000000000
     46124      7270  TIP3      OH2            -4.6366920855       -8.2608089443      -31.3337521003  TIP3      7070            0.0000000000
     46125      7270  TIP3      H1             -5.5427313995       -8.2870210266      -30.9715757329  TIP3      7070            0.0000000000
     46126      7270  TIP3      H2             -4.2641514257       -7.4560410019      -30.9249714630  TIP3      7070            0.0000000000
     46127      7271  TIP3      OH2            -3.3237377091       -9.9223655085      -45.8907173736  TIP3      7071            0.0000000000
     46128      7271  TIP3      H1             -2.4516410167       -9.5382600906      -45.7121901752  TIP3      7071            0.0000000000
     46129      7271  TIP3      H2             -3.3312555705      -10.6498630799      -45.2319513657  TIP3      7071            0.0000000000
     46130      7272  TIP3      OH2            -2.9642398895      -11.8381952633      -44.0109089594  TIP3      7072            0.0000000000
     46131      7272  TIP3      H1             -3.7106233032      -12.3599254432      -43.6366665447  TIP3      7072            0.0000000000
     46132      7272  TIP3      H2             -2.3646135004      -11.7250072226      -43.2490819312  TIP3      7072            0.0000000000
     46133      7273  TIP3      OH2            -3.2036797355       -9.1614581909      -39.0331877725  TIP3      7073            0.0000000000
     46134      7273  TIP3      H1             -2.3919963374       -9.5427897330      -39.4135571040  TIP3      7073            0.0000000000
     46135      7273  TIP3      H2             -3.0578037672       -8.2066653165      -39.2058241771  TIP3      7073            0.0000000000
     46136      7274  TIP3      OH2            -4.6448592282       -6.2532754156      -36.7645218871  TIP3      7074            0.0000000000
     46137      7274  TIP3      H1             -5.3346063454       -5.9120985256      -36.1778929181  TIP3      7074            0.0000000000
     46138      7274  TIP3      H2             -5.1924970212       -6.6555985887      -37.4732141307  TIP3      7074            0.0000000000
     46139      7275  TIP3      OH2            -2.6300284444      -11.9917217365      -47.6324351558  TIP3      7075            0.0000000000
     46140      7275  TIP3      H1             -3.2288704841      -11.6867041365      -48.3514804637  TIP3      7075            0.0000000000
     46141      7275  TIP3      H2             -2.7636492366      -11.2955233241      -46.9597595865  TIP3      7075            0.0000000000
     46142      7276  TIP3      OH2            -4.3317473616      -14.7266491088      -48.7692685915  TIP3      7076            0.0000000000
     46143      7276  TIP3      H1             -4.1688289153      -14.1067709818      -49.5105732235  TIP3      7076            0.0000000000
     46144      7276  TIP3      H2             -4.2833619919      -15.5733918243      -49.2531869502  TIP3      7076            0.0000000000
     46145      7277  TIP3      OH2            -5.1371563222      -13.3843420252      -43.4331651122  TIP3      7077            0.0000000000
     46146      7277  TIP3      H1             -5.2860137303      -14.3380474948      -43.4862173882  TIP3      7077            0.0000000000
     46147      7277  TIP3      H2             -5.4671476779      -13.1731795755      -42.5423454284  TIP3      7077            0.0000000000
     46148      7278  TIP3      OH2           -20.1369963394      -11.2870811786      -39.3875138768  TIP3      7078            0.0000000000
     46149      7278  TIP3      H1            -19.9541295160      -11.3776178001      -40.3497229770  TIP3      7078            0.0000000000
     46150      7278  TIP3      H2            -19.2508567777      -11.4932105716      -39.0298648474  TIP3      7078            0.0000000000
     46151      7279  TIP3      OH2            -4.2789950702      -11.4140524075      -33.7581308981  TIP3      7079            0.0000000000
     46152      7279  TIP3      H1             -3.6690956741      -12.1710544592      -33.6267695187  TIP3      7079            0.0000000000
     46153      7279  TIP3      H2             -3.6743043762      -10.6414865225      -33.7559402933  TIP3      7079            0.0000000000
     46154      7280  TIP3      OH2            -2.7776022939      -13.5360578605      -33.1083880493  TIP3      7080            0.0000000000
     46155      7280  TIP3      H1             -3.6607780691      -13.9345457211      -33.2625521273  TIP3      7080            0.0000000000
     46156      7280  TIP3      H2             -2.2077736638      -14.3194121137      -33.1844006277  TIP3      7080            0.0000000000
     46157      7281  TIP3      OH2            -5.0530726881      -17.4558786174      -49.9528900434  TIP3      7081            0.0000000000
     46158      7281  TIP3      H1             -4.4658189773      -17.8572566874      -49.2870333934  TIP3      7081            0.0000000000
     46159      7281  TIP3      H2             -5.9346263368      -17.7974229102      -49.7482761569  TIP3      7081            0.0000000000
     46160      7282  TIP3      OH2            -5.4849291665      -15.8147633449      -45.0057963597  TIP3      7082            0.0000000000
     46161      7282  TIP3      H1             -5.1762421458      -16.7390878400      -44.8607650248  TIP3      7082            0.0000000000
     46162      7282  TIP3      H2             -4.6861102326      -15.4076019867      -45.3717843356  TIP3      7082            0.0000000000
     46163      7283  TIP3      OH2            -4.8338002337      -15.2543436883      -39.5464242373  TIP3      7083            0.0000000000
     46164      7283  TIP3      H1             -3.8726704324      -15.0253544897      -39.5609190687  TIP3      7083            0.0000000000
     46165      7283  TIP3      H2             -5.0205982592      -15.1149875108      -38.6063521742  TIP3      7083            0.0000000000
     46166      7284  TIP3      OH2            -4.7661448330      -14.5334878582      -36.7639288594  TIP3      7084            0.0000000000
     46167      7284  TIP3      H1             -5.6508722486      -14.2442010482      -36.4511584650  TIP3      7084            0.0000000000
     46168      7284  TIP3      H2             -4.3334327393      -13.6762604304      -36.9879455216  TIP3      7084            0.0000000000
     46169      7285  TIP3      OH2           -20.5142998858      -15.9920485713      -33.2263460557  TIP3      7085            0.0000000000
     46170      7285  TIP3      H1            -19.5776032251      -16.2099932320      -33.0418163654  TIP3      7085            0.0000000000
     46171      7285  TIP3      H2            -20.9727732541      -16.8194141398      -32.9629664391  TIP3      7085            0.0000000000
     46172      7286  TIP3      OH2            -2.4947571613      -20.4676894571      -31.4278110729  TIP3      7086            0.0000000000
     46173      7286  TIP3      H1             -2.1421131598      -21.1294344288      -32.0478268993  TIP3      7086            0.0000000000
     46174      7286  TIP3      H2             -2.3942656333      -19.6539493813      -31.9614122102  TIP3      7086            0.0000000000
     46175      7287  TIP3      OH2            -4.7930313340      -18.5177441556      -44.9430191978  TIP3      7087            0.0000000000
     46176      7287  TIP3      H1             -4.5870643142      -18.9517665960      -44.0868891848  TIP3      7087            0.0000000000
     46177      7287  TIP3      H2             -5.4120429782      -19.1437589166      -45.3808880250  TIP3      7087            0.0000000000
     46178      7288  TIP3      OH2           -19.3206248441      -17.7002915441      -40.3923315828  TIP3      7088            0.0000000000
     46179      7288  TIP3      H1            -18.8721456155      -18.5282147356      -40.1247389966  TIP3      7088            0.0000000000
     46180      7288  TIP3      H2            -18.7707076806      -17.0128393136      -39.9946661721  TIP3      7088            0.0000000000
     46181      7289  TIP3      OH2           -20.8912425831      -14.6988051569      -39.3126454587  TIP3      7089            0.0000000000
     46182      7289  TIP3      H1            -20.4368464960      -14.9408385436      -40.1373121754  TIP3      7089            0.0000000000
     46183      7289  TIP3      H2            -20.5104049523      -13.8462394471      -39.1027526680  TIP3      7089            0.0000000000
     46184      7290  TIP3      OH2            -2.9733430562      -18.3706306016      -33.0722791648  TIP3      7090            0.0000000000
     46185      7290  TIP3      H1             -3.9100393835      -18.0982534469      -33.1251694604  TIP3      7090            0.0000000000
     46186      7290  TIP3      H2             -2.9423691143      -18.9223695747      -33.8685810942  TIP3      7090            0.0000000000
     46187      7291  TIP3      OH2            -2.9655710071      -18.4601003273      -48.3586648590  TIP3      7091            0.0000000000
     46188      7291  TIP3      H1             -2.5666654621      -19.1429560128      -48.9147144648  TIP3      7091            0.0000000000
     46189      7291  TIP3      H2             -2.2662978312      -17.7871137266      -48.3760524915  TIP3      7091            0.0000000000
     46190      7292  TIP3      OH2           -20.6659687526      -18.4394439100      -45.2780557681  TIP3      7092            0.0000000000
     46191      7292  TIP3      H1            -21.6086802072      -18.2636620850      -45.4187693238  TIP3      7092            0.0000000000
     46192      7292  TIP3      H2            -20.2568436917      -17.9514422426      -46.0126557546  TIP3      7092            0.0000000000
     46193      7293  TIP3      OH2            -5.9217998433       -3.4970472848      -43.3418896420  TIP3      7093            0.0000000000
     46194      7293  TIP3      H1             -5.2485578721       -3.8050949740      -43.9661361673  TIP3      7093            0.0000000000
     46195      7293  TIP3      H2             -5.4124255029       -2.9999729337      -42.6835410741  TIP3      7093            0.0000000000
     46196      7294  TIP3      OH2           -20.7157136246      -19.8069468313      -36.9757296683  TIP3      7094            0.0000000000
     46197      7294  TIP3      H1            -21.3964239650      -19.9719187368      -36.3029209827  TIP3      7094            0.0000000000
     46198      7294  TIP3      H2            -21.1630163265      -19.1194376897      -37.5215598045  TIP3      7094            0.0000000000
     46199      7295  TIP3      OH2           -18.4793667086       -6.5966564379      -32.8195180009  TIP3      7095            0.0000000000
     46200      7295  TIP3      H1            -19.3166688546       -6.3732854587      -33.2621661062  TIP3      7095            0.0000000000
     46201      7295  TIP3      H2            -18.7505936020       -6.6689525733      -31.9003453516  TIP3      7095            0.0000000000
     46202      7296  TIP3      OH2           -15.5774335946       -5.6610504858      -36.6754444122  TIP3      7096            0.0000000000
     46203      7296  TIP3      H1            -15.9213316355       -4.7472495712      -36.7763680390  TIP3      7096            0.0000000000
     46204      7296  TIP3      H2            -14.6306602006       -5.4349641982      -36.8006692294  TIP3      7096            0.0000000000
     46205      7297  TIP3      OH2           -11.2598502490       -4.1673367042      -33.6343878088  TIP3      7097            0.0000000000
     46206      7297  TIP3      H1            -11.1150837584       -4.5114245220      -32.7230147409  TIP3      7097            0.0000000000
     46207      7297  TIP3      H2            -10.3586286291       -3.8579800784      -33.8794584008  TIP3      7097            0.0000000000
     46208      7298  TIP3      OH2            -8.9738353870       -2.8951771920      -34.3260715049  TIP3      7098            0.0000000000
     46209      7298  TIP3      H1             -8.2439429725       -3.4801066428      -34.5637858932  TIP3      7098            0.0000000000
     46210      7298  TIP3      H2             -8.6003520399       -2.4562327592      -33.5305936857  TIP3      7098            0.0000000000
     46211      7299  TIP3      OH2            -3.9533713931      -20.2808387666      -35.2182821726  TIP3      7099            0.0000000000
     46212      7299  TIP3      H1             -4.7817035402      -19.9817669606      -35.6303662014  TIP3      7099            0.0000000000
     46213      7299  TIP3      H2             -3.7863699266      -21.1044236503      -35.7350218869  TIP3      7099            0.0000000000
     46214      7300  TIP3      OH2           -18.1442725243       -2.3360923646      -36.5381976487  TIP3      7100            0.0000000000
     46215      7300  TIP3      H1            -18.8826633243       -1.8511198732      -36.9437218583  TIP3      7100            0.0000000000
     46216      7300  TIP3      H2            -18.4663153886       -2.5382704015      -35.6488651324  TIP3      7100            0.0000000000
     46217      7301  TIP3      OH2           -15.6962991975       -2.8022133715      -37.4945840802  TIP3      7101            0.0000000000
     46218      7301  TIP3      H1            -16.5753941252       -2.6017675576      -37.0820922362  TIP3      7101            0.0000000000
     46219      7301  TIP3      H2            -15.7387440689       -2.1638786232      -38.2353610491  TIP3      7101            0.0000000000
     46220      7302  TIP3      OH2           -10.9847854375       -2.8637305330      -38.3035931219  TIP3      7102            0.0000000000
     46221      7302  TIP3      H1            -11.4398716005       -2.2978144644      -38.9484434068  TIP3      7102            0.0000000000
     46222      7302  TIP3      H2            -10.8493998849       -2.2275310027      -37.5648707589  TIP3      7102            0.0000000000
     46223      7303  TIP3      OH2            -8.6961515933       -4.0526248678      -37.2693529370  TIP3      7103            0.0000000000
     46224      7303  TIP3      H1             -9.5473401778       -3.7732470794      -37.6445168918  TIP3      7103            0.0000000000
     46225      7303  TIP3      H2             -8.2071347929       -3.2170254476      -37.3650347413  TIP3      7103            0.0000000000
     46226      7304  TIP3      OH2            -6.1099866019       -2.4896568566      -37.0497539085  TIP3      7104            0.0000000000
     46227      7304  TIP3      H1             -6.1863904785       -1.5317104182      -37.2748076650  TIP3      7104            0.0000000000
     46228      7304  TIP3      H2             -5.8940260618       -2.8553369347      -37.9312325054  TIP3      7104            0.0000000000
     46229      7305  TIP3      OH2           -18.6673407161       -3.6663070005      -39.5758288974  TIP3      7105            0.0000000000
     46230      7305  TIP3      H1            -18.8084772165       -4.1572434298      -38.7415080315  TIP3      7105            0.0000000000
     46231      7305  TIP3      H2            -17.8985222151       -4.0851099832      -40.0026699918  TIP3      7105            0.0000000000
     46232      7306  TIP3      OH2           -16.6214574622       -4.9895165730      -40.9410220223  TIP3      7106            0.0000000000
     46233      7306  TIP3      H1            -16.7998772971       -5.9174837900      -40.7350998522  TIP3      7106            0.0000000000
     46234      7306  TIP3      H2            -15.7608743865       -4.8141347247      -40.5063878124  TIP3      7106            0.0000000000
     46235      7307  TIP3      OH2           -14.0413118522       -4.5189010666      -40.0592908565  TIP3      7107            0.0000000000
     46236      7307  TIP3      H1            -13.8253515054       -5.4172006280      -40.3472062439  TIP3      7107            0.0000000000
     46237      7307  TIP3      H2            -13.9483856491       -4.5507570819      -39.0967326340  TIP3      7107            0.0000000000
     46238      7308  TIP3      OH2           -10.5655926616      -18.8518181378      -40.9418710006  TIP3      7108            0.0000000000
     46239      7308  TIP3      H1            -11.2394281034      -19.4922093382      -40.6543065216  TIP3      7108            0.0000000000
     46240      7308  TIP3      H2            -10.0120181968      -19.3890470658      -41.5196884757  TIP3      7108            0.0000000000
     46241      7309  TIP3      OH2            -5.4281251530      -20.8095831259      -40.8735148772  TIP3      7109            0.0000000000
     46242      7309  TIP3      H1             -4.8164152875      -20.2143200115      -41.3793863892  TIP3      7109            0.0000000000
     46243      7309  TIP3      H2             -6.3105914136      -20.4455566035      -41.1020154799  TIP3      7109            0.0000000000
     46244      7310  TIP3      OH2            -3.7606611588      -19.5586841019      -42.5931766319  TIP3      7110            0.0000000000
     46245      7310  TIP3      H1             -3.0719700788      -20.1321342809      -43.0089475807  TIP3      7110            0.0000000000
     46246      7310  TIP3      H2             -3.2524853437      -18.7211629370      -42.4867400979  TIP3      7110            0.0000000000
     46247      7311  TIP3      OH2           -18.1848566706      -20.2287870439      -43.0863125205  TIP3      7111            0.0000000000
     46248      7311  TIP3      H1            -18.9842930386      -20.4205614747      -43.6138254141  TIP3      7111            0.0000000000
     46249      7311  TIP3      H2            -17.7336087866      -21.0944392990      -43.1419619157  TIP3      7111            0.0000000000
     46250      7312  TIP3      OH2           -19.4459170801      -20.4738988333      -47.4097279924  TIP3      7112            0.0000000000
     46251      7312  TIP3      H1            -18.9148207978      -19.7976060621      -47.8755761366  TIP3      7112            0.0000000000
     46252      7312  TIP3      H2            -19.9644998384      -19.9176923857      -46.8011395140  TIP3      7112            0.0000000000
     46253      7313  TIP3      OH2           -13.7249774048      -20.3028435713      -43.3009223038  TIP3      7113            0.0000000000
     46254      7313  TIP3      H1            -12.8240682097      -19.9461201542      -43.3753098871  TIP3      7113            0.0000000000
     46255      7313  TIP3      H2            -13.7566450687      -20.5225158472      -42.3707372824  TIP3      7113            0.0000000000
     46256      7314  TIP3      OH2            -8.0057928990      -20.2847649915      -41.6765679232  TIP3      7114            0.0000000000
     46257      7314  TIP3      H1             -8.0613812671      -20.1709452195      -42.6345176100  TIP3      7114            0.0000000000
     46258      7314  TIP3      H2             -8.3945705964      -21.1847933134      -41.5430819735  TIP3      7114            0.0000000000
     46259      7315  TIP3      OH2            -6.7237136310      -20.2583813290      -46.0040874759  TIP3      7115            0.0000000000
     46260      7315  TIP3      H1             -7.4722414337      -19.6674349983      -46.1787758749  TIP3      7115            0.0000000000
     46261      7315  TIP3      H2             -7.1762006316      -21.1055180500      -45.7888040808  TIP3      7115            0.0000000000
     46262      7316  TIP3      OH2           -19.4641894459       -4.5171698722      -46.4326174913  TIP3      7116            0.0000000000
     46263      7316  TIP3      H1            -20.2094207981       -4.5361172961      -47.0507131007  TIP3      7116            0.0000000000
     46264      7316  TIP3      H2            -19.5141109171       -3.5876940843      -46.1527089897  TIP3      7116            0.0000000000
     46265      7317  TIP3      OH2           -17.6192162340      -18.5708069381      -48.8477354302  TIP3      7117            0.0000000000
     46266      7317  TIP3      H1            -17.0876139642      -19.2031390601      -49.3427860287  TIP3      7117            0.0000000000
     46267      7317  TIP3      H2            -16.9601397474      -18.2021558659      -48.2312729213  TIP3      7117            0.0000000000
     46268      7318  TIP3      OH2           -12.5481333325      -18.2694661025      -46.4584975635  TIP3      7118            0.0000000000
     46269      7318  TIP3      H1            -12.3165094798      -18.8659226229      -45.7281910399  TIP3      7118            0.0000000000
     46270      7318  TIP3      H2            -12.5118811767      -17.4209025715      -45.9626589635  TIP3      7118            0.0000000000
     46271      7319  TIP3      OH2           -10.6435531922       -3.2214481149      -48.0158007947  TIP3      7119            0.0000000000
     46272      7319  TIP3      H1             -9.7071976413       -2.9679367114      -48.1888628552  TIP3      7119            0.0000000000
     46273      7319  TIP3      H2            -10.8278339080       -3.7200219409      -48.8366347379  TIP3      7119            0.0000000000
     46274      7320  TIP3      OH2            -3.9148404846       -3.7078154600      -45.3115425706  TIP3      7120            0.0000000000
     46275      7320  TIP3      H1             -4.1525759752       -4.4938793996      -45.8594093958  TIP3      7120            0.0000000000
     46276      7320  TIP3      H2             -4.0371425276       -2.9661230664      -45.9329524641  TIP3      7120            0.0000000000
     46277      7321  TIP3      OH2           -18.3086953457      -19.6859496242      -33.6382316476  TIP3      7121            0.0000000000
     46278      7321  TIP3      H1            -18.6986644565      -20.4809570764      -33.2327038079  TIP3      7121            0.0000000000
     46279      7321  TIP3      H2            -17.4004147948      -19.7285010110      -33.2538601261  TIP3      7121            0.0000000000
     46280      7322  TIP3      OH2           -16.3080738592      -20.3032408291      -31.9909520210  TIP3      7122            0.0000000000
     46281      7322  TIP3      H1            -15.4153963614      -20.6402818425      -32.2086231528  TIP3      7122            0.0000000000
     46282      7322  TIP3      H2            -16.6819826801      -21.1108548923      -31.5892198081  TIP3      7122            0.0000000000
     46283      7323  TIP3      OH2           -17.3640103723       -3.3253848728      -49.0877153147  TIP3      7123            0.0000000000
     46284      7323  TIP3      H1            -17.9323528885       -3.3128566742      -48.3127112851  TIP3      7123            0.0000000000
     46285      7323  TIP3      H2            -16.8716289271       -4.1564423562      -49.0584316904  TIP3      7123            0.0000000000
     46286      7324  TIP3      OH2            -7.9047577320      -21.0178016009      -31.8434361378  TIP3      7124            0.0000000000
     46287      7324  TIP3      H1             -7.8113758428      -21.4903803579      -30.9937005103  TIP3      7124            0.0000000000
     46288      7324  TIP3      H2             -6.9871985015      -21.0507016104      -32.1862160330  TIP3      7124            0.0000000000
     46289      7325  TIP3      OH2            -4.6948918200       -4.9656704872      -33.2115133415  TIP3      7125            0.0000000000
     46290      7325  TIP3      H1             -5.4992233946       -5.1021080960      -33.7582621755  TIP3      7125            0.0000000000
     46291      7325  TIP3      H2             -4.8119169611       -4.0192034151      -32.9932507989  TIP3      7125            0.0000000000
     46292      7326  TIP3      OH2             9.7877523087      -11.0611631997      -43.2838570037  TIP3      7126            0.0000000000
     46293      7326  TIP3      H1              9.7184933434      -10.0862099771      -43.2191498157  TIP3      7126            0.0000000000
     46294      7326  TIP3      H2              8.9922129476      -11.3202250648      -43.7804876462  TIP3      7126            0.0000000000
     46295      7327  TIP3      OH2             8.6041883580      -11.8355398471      -39.7309827447  TIP3      7127            0.0000000000
     46296      7327  TIP3      H1              8.5920813161      -12.4838007718      -39.0123262318  TIP3      7127            0.0000000000
     46297      7327  TIP3      H2              8.2540474793      -12.3456194071      -40.4824416068  TIP3      7127            0.0000000000
     46298      7328  TIP3      OH2             0.9564299253      -12.1563686609      -38.1777473032  TIP3      7128            0.0000000000
     46299      7328  TIP3      H1              1.0405055255      -12.8451041931      -37.4852799434  TIP3      7128            0.0000000000
     46300      7328  TIP3      H2              1.7066237805      -11.5868655556      -37.9534553050  TIP3      7128            0.0000000000
     46301      7329  TIP3      OH2            12.2813138730       -8.8855962320      -41.4520384244  TIP3      7129            0.0000000000
     46302      7329  TIP3      H1             11.8939889665       -9.5991569116      -40.9322671863  TIP3      7129            0.0000000000
     46303      7329  TIP3      H2             12.3298144345       -8.1790266213      -40.7777915581  TIP3      7129            0.0000000000
     46304      7330  TIP3      OH2             1.8824044747       -7.7081937781      -39.6790451253  TIP3      7130            0.0000000000
     46305      7330  TIP3      H1              1.5736001048       -8.5790230861      -39.9937652776  TIP3      7130            0.0000000000
     46306      7330  TIP3      H2              2.8378720291       -7.8910192838      -39.6319904855  TIP3      7130            0.0000000000
     46307      7331  TIP3      OH2            -1.4847192024      -14.1566765100      -44.1872050171  TIP3      7131            0.0000000000
     46308      7331  TIP3      H1             -1.9131911359      -13.2827181016      -44.2453961905  TIP3      7131            0.0000000000
     46309      7331  TIP3      H2             -2.0377111365      -14.6929493300      -44.7687278916  TIP3      7131            0.0000000000
     46310      7332  TIP3      OH2            -0.7654573686      -11.9275491130      -42.0352379592  TIP3      7132            0.0000000000
     46311      7332  TIP3      H1             -0.4893280600      -12.7491764294      -41.5870579365  TIP3      7132            0.0000000000
     46312      7332  TIP3      H2             -0.0737400363      -11.8201903344      -42.7055061360  TIP3      7132            0.0000000000
     46313      7333  TIP3      OH2             9.4135337538       -3.7226101622      -41.2020056184  TIP3      7133            0.0000000000
     46314      7333  TIP3      H1             10.0590360856       -4.4132728019      -41.4937800323  TIP3      7133            0.0000000000
     46315      7333  TIP3      H2              9.1931135730       -4.0652405012      -40.3365066368  TIP3      7133            0.0000000000
     46316      7334  TIP3      OH2             6.9801586567       -9.4379507214      -39.2551252098  TIP3      7134            0.0000000000
     46317      7334  TIP3      H1              7.3172498766      -10.0624106140      -39.9147969023  TIP3      7134            0.0000000000
     46318      7334  TIP3      H2              7.7914910050       -9.2769252393      -38.7416903398  TIP3      7134            0.0000000000
     46319      7335  TIP3      OH2            15.5716602389      -17.7697958234      -38.5355347620  TIP3      7135            0.0000000000
     46320      7335  TIP3      H1             15.7523217771      -17.1858088862      -37.7675985993  TIP3      7135            0.0000000000
     46321      7335  TIP3      H2             16.1458592526      -17.3534473560      -39.1941758879  TIP3      7135            0.0000000000
     46322      7336  TIP3      OH2            10.1465622131      -14.9663088784      -38.9417935615  TIP3      7136            0.0000000000
     46323      7336  TIP3      H1             10.3157480808      -15.9246318372      -38.9369812207  TIP3      7136            0.0000000000
     46324      7336  TIP3      H2             10.0444623167      -14.8268907178      -39.9035217254  TIP3      7136            0.0000000000
     46325      7337  TIP3      OH2             3.2600552029      -16.8775422926      -41.7316512057  TIP3      7137            0.0000000000
     46326      7337  TIP3      H1              3.3684996206      -16.0421407952      -42.2230387953  TIP3      7137            0.0000000000
     46327      7337  TIP3      H2              2.8606100597      -17.4495832865      -42.4195367538  TIP3      7137            0.0000000000
     46328      7338  TIP3      OH2            11.0008461202      -16.7983064427      -43.3580125019  TIP3      7138            0.0000000000
     46329      7338  TIP3      H1             11.6487028847      -17.1162741438      -42.6862351240  TIP3      7138            0.0000000000
     46330      7338  TIP3      H2             11.5653386301      -16.2247671122      -43.9020307831  TIP3      7138            0.0000000000
     46331      7339  TIP3      OH2            -0.1171096415      -14.4646329848      -40.9946742704  TIP3      7139            0.0000000000
     46332      7339  TIP3      H1              0.5535970282      -15.0088788526      -40.5393666991  TIP3      7139            0.0000000000
     46333      7339  TIP3      H2             -0.0091357881      -14.7803976932      -41.9058546159  TIP3      7139            0.0000000000
     46334      7340  TIP3      OH2             5.0433448112      -12.9094727904      -41.6719526585  TIP3      7140            0.0000000000
     46335      7340  TIP3      H1              5.7141436578      -13.4917761822      -41.2744901120  TIP3      7140            0.0000000000
     46336      7340  TIP3      H2              4.5299455711      -13.5643768387      -42.1851640089  TIP3      7140            0.0000000000
     46337      7341  TIP3      OH2            16.0119393515      -16.3703383305      -36.2557652637  TIP3      7141            0.0000000000
     46338      7341  TIP3      H1             15.4105516331      -15.6011563543      -36.3690891860  TIP3      7141            0.0000000000
     46339      7341  TIP3      H2             16.0491182903      -16.4468904446      -35.2958880650  TIP3      7141            0.0000000000
     46340      7342  TIP3      OH2             2.1714105394      -17.9763149024      -37.6891574528  TIP3      7142            0.0000000000
     46341      7342  TIP3      H1              1.8882516714      -17.4040478817      -38.4337159807  TIP3      7142            0.0000000000
     46342      7342  TIP3      H2              1.4941669158      -17.7488707263      -37.0063822086  TIP3      7142            0.0000000000
     46343      7343  TIP3      OH2             9.4980426419       -8.4976746200      -44.1936911993  TIP3      7143            0.0000000000
     46344      7343  TIP3      H1              9.0830635779       -8.7481588257      -45.0241245375  TIP3      7143            0.0000000000
     46345      7343  TIP3      H2              9.1599529918       -7.5734780903      -44.0696812275  TIP3      7143            0.0000000000
     46346      7344  TIP3      OH2             4.6817973560      -10.3350123546      -37.4516687503  TIP3      7144            0.0000000000
     46347      7344  TIP3      H1              3.9783646042       -9.6898320507      -37.2281636069  TIP3      7144            0.0000000000
     46348      7344  TIP3      H2              5.3896444537       -9.7365290307      -37.7411499965  TIP3      7144            0.0000000000
     46349      7345  TIP3      OH2            12.8133003112      -17.4506788706      -41.3665150985  TIP3      7145            0.0000000000
     46350      7345  TIP3      H1             12.5893170924      -18.2183399251      -40.8329626504  TIP3      7145            0.0000000000
     46351      7345  TIP3      H2             13.4811953278      -17.0139668369      -40.8111230211  TIP3      7145            0.0000000000
     46352      7346  TIP3      OH2             1.7396976183      -16.1200857715      -39.6510810724  TIP3      7146            0.0000000000
     46353      7346  TIP3      H1              2.3665249633      -15.4303847055      -39.3380502938  TIP3      7146            0.0000000000
     46354      7346  TIP3      H2              2.2556382618      -16.5290283639      -40.3906584372  TIP3      7146            0.0000000000
     46355      7347  TIP3      OH2             3.1314637778       -8.3277093947      -36.6304191503  TIP3      7147            0.0000000000
     46356      7347  TIP3      H1              3.0817687586       -7.4145829589      -36.9674449140  TIP3      7147            0.0000000000
     46357      7347  TIP3      H2              2.2492986892       -8.4090128633      -36.1869929993  TIP3      7147            0.0000000000
     46358      7348  TIP3      OH2            -0.8144789218       -8.7321361198      -45.8001628186  TIP3      7148            0.0000000000
     46359      7348  TIP3      H1             -1.0385486434       -8.4194792693      -46.6985917604  TIP3      7148            0.0000000000
     46360      7348  TIP3      H2             -0.7283702497       -7.8899270968      -45.3115907515  TIP3      7148            0.0000000000
     46361      7349  TIP3      OH2            12.7953702017       -7.0636104506      -39.1278920222  TIP3      7149            0.0000000000
     46362      7349  TIP3      H1             11.8458847277       -6.9226383412      -38.9485147652  TIP3      7149            0.0000000000
     46363      7349  TIP3      H2             13.1092566869       -6.1475159318      -39.2666841342  TIP3      7149            0.0000000000
     46364      7350  TIP3      OH2            13.1428796778      -18.7657010503      -37.6903851890  TIP3      7150            0.0000000000
     46365      7350  TIP3      H1             12.4183381937      -18.1311337847      -37.7827717079  TIP3      7150            0.0000000000
     46366      7350  TIP3      H2             13.8560439335      -18.3472934591      -38.2108767659  TIP3      7150            0.0000000000
     46367      7351  TIP3      OH2             6.1062086031      -20.6422934377      -40.2219502774  TIP3      7151            0.0000000000
     46368      7351  TIP3      H1              5.9620891996      -21.6054210143      -40.2987387039  TIP3      7151            0.0000000000
     46369      7351  TIP3      H2              5.2277537568      -20.3370842767      -39.9160894619  TIP3      7151            0.0000000000
     46370      7352  TIP3      OH2            11.0859808109       -5.2583773786      -42.4697807739  TIP3      7152            0.0000000000
     46371      7352  TIP3      H1             11.5117682662       -5.9736410722      -42.9823736681  TIP3      7152            0.0000000000
     46372      7352  TIP3      H2             11.5109773620       -4.4725629625      -42.8768762192  TIP3      7152            0.0000000000
     46373      7353  TIP3      OH2            12.2848603812       -7.3391338807      -43.9575520561  TIP3      7153            0.0000000000
     46374      7353  TIP3      H1             12.0033122985       -8.0332783382      -44.5635662551  TIP3      7153            0.0000000000
     46375      7353  TIP3      H2             12.3476788065       -7.8174917011      -43.1085072405  TIP3      7153            0.0000000000
     46376      7354  TIP3      OH2            13.8895601655       -8.7333343731      -35.4936915667  TIP3      7154            0.0000000000
     46377      7354  TIP3      H1             14.0810324889       -9.3773679782      -36.2058496125  TIP3      7154            0.0000000000
     46378      7354  TIP3      H2             14.1468990300       -7.8912322633      -35.9269740245  TIP3      7154            0.0000000000
     46379      7355  TIP3      OH2             8.4294750888      -11.7483051983      -45.7077799411  TIP3      7155            0.0000000000
     46380      7355  TIP3      H1              7.6535807638      -11.2743181855      -46.0770744062  TIP3      7155            0.0000000000
     46381      7355  TIP3      H2              9.0360237932      -11.8648395551      -46.4496883435  TIP3      7155            0.0000000000
     46382      7356  TIP3      OH2             8.5253402271      -13.3291377366      -48.6814373101  TIP3      7156            0.0000000000
     46383      7356  TIP3      H1              9.2288530101      -13.3685599000      -48.0142926488  TIP3      7156            0.0000000000
     46384      7356  TIP3      H2              8.8096356269      -14.0543908409      -49.2730845279  TIP3      7156            0.0000000000
     46385      7357  TIP3      OH2            15.7815393809      -12.4505711155      -37.4433573792  TIP3      7157            0.0000000000
     46386      7357  TIP3      H1             15.1399151723      -11.7094365373      -37.3885766489  TIP3      7157            0.0000000000
     46387      7357  TIP3      H2             16.2940497253      -12.1865994336      -38.2310211359  TIP3      7157            0.0000000000
     46388      7358  TIP3      OH2            11.8032219372      -11.6167273703      -44.8001273534  TIP3      7158            0.0000000000
     46389      7358  TIP3      H1             11.1043692489      -11.4256059420      -44.1168025551  TIP3      7158            0.0000000000
     46390      7358  TIP3      H2             12.3321698340      -12.2831679149      -44.3019589821  TIP3      7158            0.0000000000
     46391      7359  TIP3      OH2            11.7829572722      -13.4759942064      -35.6665030990  TIP3      7159            0.0000000000
     46392      7359  TIP3      H1             11.7898281539      -12.6547397426      -35.1474483898  TIP3      7159            0.0000000000
     46393      7359  TIP3      H2             11.1542848836      -13.1858853106      -36.3599970309  TIP3      7159            0.0000000000
     46394      7360  TIP3      OH2             3.4620372941      -10.9841508415      -42.8765886956  TIP3      7160            0.0000000000
     46395      7360  TIP3      H1              3.1435016905      -11.3615994100      -43.7338078589  TIP3      7160            0.0000000000
     46396      7360  TIP3      H2              4.0780553104      -11.6754423305      -42.5452925800  TIP3      7160            0.0000000000
     46397      7361  TIP3      OH2             4.7825306610       -7.5996318016      -40.1935777897  TIP3      7161            0.0000000000
     46398      7361  TIP3      H1              4.7717995825       -8.1222176627      -41.0033415347  TIP3      7161            0.0000000000
     46399      7361  TIP3      H2              5.5671133717       -7.9563619606      -39.7378768864  TIP3      7161            0.0000000000
     46400      7362  TIP3      OH2             3.7925470764      -12.2356185525      -39.2125956943  TIP3      7162            0.0000000000
     46401      7362  TIP3      H1              4.3405711197      -12.1381576107      -40.0160327408  TIP3      7162            0.0000000000
     46402      7362  TIP3      H2              4.1857940082      -11.5702644418      -38.6049343789  TIP3      7162            0.0000000000
     46403      7363  TIP3      OH2            10.2095077870       -6.6594822674      -38.5064641961  TIP3      7163            0.0000000000
     46404      7363  TIP3      H1              9.9197459832       -6.0217780435      -37.8433205540  TIP3      7163            0.0000000000
     46405      7363  TIP3      H2              9.9629804373       -7.5161696631      -38.0856196371  TIP3      7163            0.0000000000
     46406      7364  TIP3      OH2             4.7478479952       -7.8044423998      -34.5182221115  TIP3      7164            0.0000000000
     46407      7364  TIP3      H1              4.3314739831       -7.0665401354      -34.0275183012  TIP3      7164            0.0000000000
     46408      7364  TIP3      H2              4.0757850436       -8.0051702711      -35.2154550967  TIP3      7164            0.0000000000
     46409      7365  TIP3      OH2            10.6791095054      -12.4013769949      -47.1220789774  TIP3      7165            0.0000000000
     46410      7365  TIP3      H1             11.3159535642      -12.4242975676      -46.3612870327  TIP3      7165            0.0000000000
     46411      7365  TIP3      H2             11.2278344748      -12.1102183618      -47.9006292707  TIP3      7165            0.0000000000
     46412      7366  TIP3      OH2             1.6903856422      -11.6452053932      -35.3680728904  TIP3      7166            0.0000000000
     46413      7366  TIP3      H1              1.7434727338      -10.9780994022      -34.6577934759  TIP3      7166            0.0000000000
     46414      7366  TIP3      H2              0.7467674996      -11.5585289027      -35.5753704661  TIP3      7166            0.0000000000
     46415      7367  TIP3      OH2             8.4635235088       -5.7250811993      -43.6840672849  TIP3      7167            0.0000000000
     46416      7367  TIP3      H1              8.8744750667       -5.4235554934      -42.8620055512  TIP3      7167            0.0000000000
     46417      7367  TIP3      H2              7.8835933671       -4.9815482630      -43.8906377716  TIP3      7167            0.0000000000
     46418      7368  TIP3      OH2             2.9948537457       -5.7713446869      -33.7715498012  TIP3      7168            0.0000000000
     46419      7368  TIP3      H1              2.9326340124       -5.8692319954      -34.7371404588  TIP3      7168            0.0000000000
     46420      7368  TIP3      H2              2.0653219074       -5.9054295931      -33.5032357575  TIP3      7168            0.0000000000
     46421      7369  TIP3      OH2            14.4701800847      -20.7288483249      -47.2735645153  TIP3      7169            0.0000000000
     46422      7369  TIP3      H1             13.5277265346      -20.6278793974      -46.9913695870  TIP3      7169            0.0000000000
     46423      7369  TIP3      H2             14.6367735374      -19.8550603556      -47.6664182263  TIP3      7169            0.0000000000
     46424      7370  TIP3      OH2             2.4392381571      -11.9600952422      -45.2405774832  TIP3      7170            0.0000000000
     46425      7370  TIP3      H1              2.1430378530      -11.1887435528      -45.7685441360  TIP3      7170            0.0000000000
     46426      7370  TIP3      H2              1.7911751204      -12.6303377192      -45.4744484792  TIP3      7170            0.0000000000
     46427      7371  TIP3      OH2            15.5324325418       -6.3266398598      -48.7472316158  TIP3      7171            0.0000000000
     46428      7371  TIP3      H1             15.6933864965       -5.3716910949      -48.6670419895  TIP3      7171            0.0000000000
     46429      7371  TIP3      H2             16.4225948574       -6.7040807006      -48.8598199424  TIP3      7171            0.0000000000
     46430      7372  TIP3      OH2            -1.4818534055       -9.5315113939      -36.3562666234  TIP3      7172            0.0000000000
     46431      7372  TIP3      H1             -1.9180267448       -9.6095542623      -37.2239483195  TIP3      7172            0.0000000000
     46432      7372  TIP3      H2             -1.3942943007      -10.4789799741      -36.1453934968  TIP3      7172            0.0000000000
     46433      7373  TIP3      OH2            -1.7161916274       -6.7953749495      -39.5853841372  TIP3      7173            0.0000000000
     46434      7373  TIP3      H1             -0.7579588252       -6.9127555311      -39.6066201567  TIP3      7173            0.0000000000
     46435      7373  TIP3      H2             -1.7975456392       -5.9779243089      -39.0807644380  TIP3      7173            0.0000000000
     46436      7374  TIP3      OH2            16.5441936443       -6.0905311283      -33.8159030392  TIP3      7174            0.0000000000
     46437      7374  TIP3      H1             16.4082419537       -7.0378512403      -33.9519698614  TIP3      7174            0.0000000000
     46438      7374  TIP3      H2             15.6359253560       -5.8461916614      -33.5385431420  TIP3      7174            0.0000000000
     46439      7375  TIP3      OH2             7.4804153429       -6.5516396549      -35.0345873201  TIP3      7175            0.0000000000
     46440      7375  TIP3      H1              7.5394242761       -5.7092850509      -34.5253794405  TIP3      7175            0.0000000000
     46441      7375  TIP3      H2              6.6080247965       -6.9109553191      -34.7827192611  TIP3      7175            0.0000000000
     46442      7376  TIP3      OH2             7.9083068560       -2.8079553980      -45.2434438510  TIP3      7176            0.0000000000
     46443      7376  TIP3      H1              7.8497446716       -2.8795872606      -46.2095451886  TIP3      7176            0.0000000000
     46444      7376  TIP3      H2              7.9430008542       -1.8495869583      -45.0749139548  TIP3      7176            0.0000000000
     46445      7377  TIP3      OH2             1.5564933209       -3.9159939645      -43.3878498323  TIP3      7177            0.0000000000
     46446      7377  TIP3      H1              1.7109163153       -4.3498440935      -42.5182763211  TIP3      7177            0.0000000000
     46447      7377  TIP3      H2              0.7186450898       -4.3334762096      -43.6462597941  TIP3      7177            0.0000000000
     46448      7378  TIP3      OH2            10.8706009049       -3.5253393786      -48.2099175233  TIP3      7178            0.0000000000
     46449      7378  TIP3      H1             11.3573088285       -4.2658467706      -48.6583960724  TIP3      7178            0.0000000000
     46450      7378  TIP3      H2             11.0095672445       -3.8339629803      -47.2994974657  TIP3      7178            0.0000000000
     46451      7379  TIP3      OH2            10.6563461257       -3.6405490804      -45.4261005594  TIP3      7179            0.0000000000
     46452      7379  TIP3      H1              9.6922222941       -3.5959837821      -45.2896909322  TIP3      7179            0.0000000000
     46453      7379  TIP3      H2             10.8980642338       -4.4155283886      -44.9002638111  TIP3      7179            0.0000000000
     46454      7380  TIP3      OH2            13.6709036189      -14.6240815020      -33.4275235942  TIP3      7180            0.0000000000
     46455      7380  TIP3      H1             13.1935495584      -14.1734596124      -34.1432585355  TIP3      7180            0.0000000000
     46456      7380  TIP3      H2             13.6546788656      -15.5436639328      -33.7319709643  TIP3      7180            0.0000000000
     46457      7381  TIP3      OH2             0.8118776204       -8.2106483075      -35.4222193253  TIP3      7181            0.0000000000
     46458      7381  TIP3      H1              1.0326136176       -8.5779906594      -34.5404677969  TIP3      7181            0.0000000000
     46459      7381  TIP3      H2             -0.0574943616       -8.6113232896      -35.6341685724  TIP3      7181            0.0000000000
     46460      7382  TIP3      OH2             3.4920149187      -19.7399673325      -39.4725588736  TIP3      7182            0.0000000000
     46461      7382  TIP3      H1              2.5877187285      -19.8670423801      -39.8400550396  TIP3      7182            0.0000000000
     46462      7382  TIP3      H2              3.3568943424      -18.9101234729      -38.9855891413  TIP3      7182            0.0000000000
     46463      7383  TIP3      OH2             8.1285546549      -20.0484673276      -36.1080615784  TIP3      7183            0.0000000000
     46464      7383  TIP3      H1              8.5233573379      -20.4927036140      -35.3347846158  TIP3      7183            0.0000000000
     46465      7383  TIP3      H2              7.1575829234      -20.1758428259      -35.9661395748  TIP3      7183            0.0000000000
     46466      7384  TIP3      OH2            11.4215726863      -16.2261262630      -35.2097212685  TIP3      7184            0.0000000000
     46467      7384  TIP3      H1             10.8564736849      -16.4414481462      -34.4287874784  TIP3      7184            0.0000000000
     46468      7384  TIP3      H2             11.2374348809      -15.2987710257      -35.4380489954  TIP3      7184            0.0000000000
     46469      7385  TIP3      OH2            12.3972349104      -11.4677072063      -48.8740183994  TIP3      7185            0.0000000000
     46470      7385  TIP3      H1             12.2760039178      -11.6612626849      -49.8319541342  TIP3      7185            0.0000000000
     46471      7385  TIP3      H2             13.2162945756      -10.9563579979      -49.0789775986  TIP3      7185            0.0000000000
     46472      7386  TIP3      OH2             7.8128852650      -17.4621442719      -48.7665843849  TIP3      7186            0.0000000000
     46473      7386  TIP3      H1              7.4651296134      -17.5450718007      -47.8556333384  TIP3      7186            0.0000000000
     46474      7386  TIP3      H2              7.5257489554      -18.3201679759      -49.1040288536  TIP3      7186            0.0000000000
     46475      7387  TIP3      OH2             3.5982584257      -14.7606252803      -38.2071526495  TIP3      7187            0.0000000000
     46476      7387  TIP3      H1              2.8552950637      -14.7740732332      -37.5794265272  TIP3      7187            0.0000000000
     46477      7387  TIP3      H2              3.5454482565      -13.8560925528      -38.5914566140  TIP3      7187            0.0000000000
     46478      7388  TIP3      OH2             3.5561379614      -14.6534437410      -43.3535100893  TIP3      7188            0.0000000000
     46479      7388  TIP3      H1              2.6157855112      -14.9020620023      -43.4867567061  TIP3      7188            0.0000000000
     46480      7388  TIP3      H2              3.9303596750      -14.9396085419      -44.2108178635  TIP3      7188            0.0000000000
     46481      7389  TIP3      OH2             9.0794593281      -14.1249255742      -44.5978481556  TIP3      7189            0.0000000000
     46482      7389  TIP3      H1              8.6722513907      -13.3157885830      -44.9585307758  TIP3      7189            0.0000000000
     46483      7389  TIP3      H2              9.7697944932      -14.3346081559      -45.2509722655  TIP3      7189            0.0000000000
     46484      7390  TIP3      OH2             8.1268311292      -13.9366669969      -33.1483710984  TIP3      7190            0.0000000000
     46485      7390  TIP3      H1              7.6025432971      -14.7132075223      -32.8385418490  TIP3      7190            0.0000000000
     46486      7390  TIP3      H2              8.9650586171      -14.0573927417      -32.6717995945  TIP3      7190            0.0000000000
     46487      7391  TIP3      OH2            10.1134113232      -14.6698026663      -41.7313203751  TIP3      7191            0.0000000000
     46488      7391  TIP3      H1              9.8170356173      -14.1026152354      -42.4608724231  TIP3      7191            0.0000000000
     46489      7391  TIP3      H2             10.2050827504      -15.5100455249      -42.2205219466  TIP3      7191            0.0000000000
     46490      7392  TIP3      OH2             1.2154167303      -14.5190348093      -36.5407914154  TIP3      7192            0.0000000000
     46491      7392  TIP3      H1              1.2992754894      -14.1097326341      -35.6619409050  TIP3      7192            0.0000000000
     46492      7392  TIP3      H2              0.7747937512      -15.3569218448      -36.3280067219  TIP3      7192            0.0000000000
     46493      7393  TIP3      OH2             4.5971597830      -17.2162557367      -49.6973445498  TIP3      7193            0.0000000000
     46494      7393  TIP3      H1              4.1664308335      -17.5124684647      -48.8760463740  TIP3      7193            0.0000000000
     46495      7393  TIP3      H2              3.9201057947      -16.7063671637      -50.1603420831  TIP3      7193            0.0000000000
     46496      7394  TIP3      OH2            -2.1265463749      -17.4097096705      -42.5467822478  TIP3      7194            0.0000000000
     46497      7394  TIP3      H1             -1.4419211383      -17.4479550938      -41.8488054086  TIP3      7194            0.0000000000
     46498      7394  TIP3      H2             -1.6783780640      -17.7813123813      -43.3301434367  TIP3      7194            0.0000000000
     46499      7395  TIP3      OH2            -0.8317420821      -16.7044297382      -47.1893817910  TIP3      7195            0.0000000000
     46500      7395  TIP3      H1             -0.3410191073      -16.0809106595      -47.7577468952  TIP3      7195            0.0000000000
     46501      7395  TIP3      H2             -1.5208224231      -16.0757477648      -46.8803983349  TIP3      7195            0.0000000000
     46502      7396  TIP3      OH2             9.3027187609      -13.0740906186      -37.1872261084  TIP3      7196            0.0000000000
     46503      7396  TIP3      H1              9.6853073614      -13.7606580430      -37.7705837785  TIP3      7196            0.0000000000
     46504      7396  TIP3      H2              8.8361687495      -13.6013362562      -36.5141435064  TIP3      7196            0.0000000000
     46505      7397  TIP3      OH2             6.1122164199      -17.0891962906      -42.3518987041  TIP3      7197            0.0000000000
     46506      7397  TIP3      H1              5.1796251067      -17.0928512816      -42.0616536424  TIP3      7197            0.0000000000
     46507      7397  TIP3      H2              6.5913695892      -17.2681791065      -41.5281286891  TIP3      7197            0.0000000000
     46508      7398  TIP3      OH2             0.9155780572      -15.5470552002      -43.4790043484  TIP3      7198            0.0000000000
     46509      7398  TIP3      H1              0.0330581061      -15.3883422023      -43.8724557762  TIP3      7198            0.0000000000
     46510      7398  TIP3      H2              1.2011582167      -16.3805467992      -43.8927521514  TIP3      7198            0.0000000000
     46511      7399  TIP3      OH2             4.5647998522      -15.4943307971      -45.8399451763  TIP3      7199            0.0000000000
     46512      7399  TIP3      H1              5.5209233185      -15.3969669393      -45.6714096662  TIP3      7199            0.0000000000
     46513      7399  TIP3      H2              4.3325044121      -14.8284651245      -46.5160909391  TIP3      7199            0.0000000000
     46514      7400  TIP3      OH2            10.5110010980      -17.8625579520      -39.1091890491  TIP3      7200            0.0000000000
     46515      7400  TIP3      H1              9.8289928496      -17.8105452207      -38.4059668840  TIP3      7200            0.0000000000
     46516      7400  TIP3      H2             10.0035572706      -18.1162702622      -39.8940864087  TIP3      7200            0.0000000000
     46517      7401  TIP3      OH2             3.2870099071      -14.3071979120      -48.2457019647  TIP3      7201            0.0000000000
     46518      7401  TIP3      H1              2.6892618729      -14.6606827654      -48.9061989390  TIP3      7201            0.0000000000
     46519      7401  TIP3      H2              4.0899677073      -14.1021750181      -48.7452925069  TIP3      7201            0.0000000000
     46520      7402  TIP3      OH2            13.7129073398       -2.2167865627      -32.7877057845  TIP3      7202            0.0000000000
     46521      7402  TIP3      H1             13.9826042728       -1.8395413776      -33.6454690583  TIP3      7202            0.0000000000
     46522      7402  TIP3      H2             14.4359863978       -1.8992903528      -32.2261804739  TIP3      7202            0.0000000000
     46523      7403  TIP3      OH2             1.3897135346       -9.7512357375      -33.2108874943  TIP3      7203            0.0000000000
     46524      7403  TIP3      H1              2.1098119703       -9.5042464219      -32.6078269619  TIP3      7203            0.0000000000
     46525      7403  TIP3      H2              0.6174604542       -9.6717547247      -32.6092668284  TIP3      7203            0.0000000000
     46526      7404  TIP3      OH2             7.3961424935      -14.3333004345      -40.4606266147  TIP3      7204            0.0000000000
     46527      7404  TIP3      H1              7.9907691026      -14.8734523816      -40.9923504450  TIP3      7204            0.0000000000
     46528      7404  TIP3      H2              7.2444440298      -14.8848508617      -39.6784892835  TIP3      7204            0.0000000000
     46529      7405  TIP3      OH2             2.3832103133      -18.1987057877      -44.0549617809  TIP3      7205            0.0000000000
     46530      7405  TIP3      H1              2.0914460667      -19.1242698055      -44.0064970982  TIP3      7205            0.0000000000
     46531      7405  TIP3      H2              3.2087778192      -18.2717214031      -44.5456474990  TIP3      7205            0.0000000000
     46532      7406  TIP3      OH2             6.0275521542      -16.0118580281      -38.0423376226  TIP3      7206            0.0000000000
     46533      7406  TIP3      H1              5.2038917742      -15.4931044684      -37.9544443199  TIP3      7206            0.0000000000
     46534      7406  TIP3      H2              6.5837360924      -15.6593879850      -37.3212830655  TIP3      7206            0.0000000000
     46535      7407  TIP3      OH2             6.6548280207       -9.8226440157      -46.3246935883  TIP3      7207            0.0000000000
     46536      7407  TIP3      H1              5.8233677762      -10.2361675974      -46.6630933257  TIP3      7207            0.0000000000
     46537      7407  TIP3      H2              6.3892031843       -9.6488110248      -45.3939172722  TIP3      7207            0.0000000000
     46538      7408  TIP3      OH2            13.8107980576      -10.6161051053      -37.5543962182  TIP3      7208            0.0000000000
     46539      7408  TIP3      H1             14.3685470018      -10.0904445467      -38.1589400624  TIP3      7208            0.0000000000
     46540      7408  TIP3      H2             12.9437038491      -10.5381349778      -38.0008852675  TIP3      7208            0.0000000000
     46541      7409  TIP3      OH2            10.3941206518      -16.9445065497      -47.9845826989  TIP3      7209            0.0000000000
     46542      7409  TIP3      H1              9.4849623364      -16.7900418062      -48.2768520777  TIP3      7209            0.0000000000
     46543      7409  TIP3      H2             10.7598576793      -16.0566202461      -47.8409566848  TIP3      7209            0.0000000000
     46544      7410  TIP3      OH2             8.1096306161       -9.5164473264      -35.0990604485  TIP3      7210            0.0000000000
     46545      7410  TIP3      H1              7.7590685335       -9.9478577200      -34.3129105411  TIP3      7210            0.0000000000
     46546      7410  TIP3      H2              7.8515460441       -8.5957756620      -34.9916416371  TIP3      7210            0.0000000000
     46547      7411  TIP3      OH2            11.1693423289      -14.9903885150      -46.4615255406  TIP3      7211            0.0000000000
     46548      7411  TIP3      H1             12.0656329191      -15.2239422296      -46.1244812589  TIP3      7211            0.0000000000
     46549      7411  TIP3      H2             11.3078624394      -14.2644110707      -47.0794930087  TIP3      7211            0.0000000000
     46550      7412  TIP3      OH2             1.7296837739      -10.3902375206      -40.5407658003  TIP3      7212            0.0000000000
     46551      7412  TIP3      H1              2.4093919520      -10.4760600128      -41.2358045227  TIP3      7212            0.0000000000
     46552      7412  TIP3      H2              1.7855475275      -11.2509028497      -40.0881840707  TIP3      7212            0.0000000000
     46553      7413  TIP3      OH2             8.7957077594       -8.3871251680      -47.2055144822  TIP3      7213            0.0000000000
     46554      7413  TIP3      H1              8.4031707226       -7.5004463794      -46.9976067167  TIP3      7213            0.0000000000
     46555      7413  TIP3      H2              7.9645497982       -8.9101128709      -47.1269231872  TIP3      7213            0.0000000000
     46556      7414  TIP3      OH2            -1.2822395241      -11.9924458284      -35.2840103606  TIP3      7214            0.0000000000
     46557      7414  TIP3      H1             -1.1144829269      -12.4370239190      -34.4299980519  TIP3      7214            0.0000000000
     46558      7414  TIP3      H2             -1.9044590758      -12.6011454757      -35.7228981659  TIP3      7214            0.0000000000
     46559      7415  TIP3      OH2             5.7292124045      -12.4314840263      -33.1076460526  TIP3      7215            0.0000000000
     46560      7415  TIP3      H1              5.4088179362      -12.7419699072      -33.9667786829  TIP3      7215            0.0000000000
     46561      7415  TIP3      H2              6.6516980934      -12.7568300557      -33.1095655114  TIP3      7215            0.0000000000
     46562      7416  TIP3      OH2            10.4173201267       -7.0951175774      -35.1499598580  TIP3      7216            0.0000000000
     46563      7416  TIP3      H1              9.4921171211       -6.9167010240      -35.3846713641  TIP3      7216            0.0000000000
     46564      7416  TIP3      H2             10.3815975780       -6.8029628307      -34.2184611815  TIP3      7216            0.0000000000
     46565      7417  TIP3      OH2            16.1160471199      -14.9148828047      -46.7282006876  TIP3      7217            0.0000000000
     46566      7417  TIP3      H1             15.5338702605      -15.1834340381      -47.4734997445  TIP3      7217            0.0000000000
     46567      7417  TIP3      H2             16.1736225584      -13.9695362682      -46.9877932187  TIP3      7217            0.0000000000
     46568      7418  TIP3      OH2            16.0604085895       -9.0765583825      -33.9509965101  TIP3      7218            0.0000000000
     46569      7418  TIP3      H1             15.1753546710       -8.8297246636      -34.3157173705  TIP3      7218            0.0000000000
     46570      7418  TIP3      H2             16.6094172599       -9.0807157494      -34.7634509362  TIP3      7218            0.0000000000
     46571      7419  TIP3      OH2            14.3630278729       -6.1097245859      -46.3706317491  TIP3      7219            0.0000000000
     46572      7419  TIP3      H1             14.0109595903       -6.9401495308      -46.0486365674  TIP3      7219            0.0000000000
     46573      7419  TIP3      H2             14.6763915849       -6.3041073883      -47.2759827781  TIP3      7219            0.0000000000
     46574      7420  TIP3      OH2            11.5751849270      -11.2671726482      -39.2691037026  TIP3      7220            0.0000000000
     46575      7420  TIP3      H1             10.6390121030      -11.4856044422      -39.3727350075  TIP3      7220            0.0000000000
     46576      7420  TIP3      H2             12.0151219265      -12.0274338668      -39.6962526267  TIP3      7220            0.0000000000
     46577      7421  TIP3      OH2             4.1015288519       -6.9427624656      -43.1576440416  TIP3      7221            0.0000000000
     46578      7421  TIP3      H1              4.5961119892       -6.1342153957      -43.3617259781  TIP3      7221            0.0000000000
     46579      7421  TIP3      H2              3.2226426085       -6.7084669767      -43.4851328481  TIP3      7221            0.0000000000
     46580      7422  TIP3      OH2            -0.0748353625      -12.1448581739      -48.5617410221  TIP3      7222            0.0000000000
     46581      7422  TIP3      H1              0.4646877909      -11.4395420496      -48.1654146149  TIP3      7222            0.0000000000
     46582      7422  TIP3      H2             -0.9799281904      -11.8242857024      -48.3421168443  TIP3      7222            0.0000000000
     46583      7423  TIP3      OH2             5.5228889486       -9.2786084517      -43.6429496518  TIP3      7223            0.0000000000
     46584      7423  TIP3      H1              5.1990455577       -8.3575549398      -43.5579324014  TIP3      7223            0.0000000000
     46585      7423  TIP3      H2              4.8000614896       -9.7679095316      -43.1963216811  TIP3      7223            0.0000000000
     46586      7424  TIP3      OH2             5.9647887924       -5.0895076591      -37.2277796251  TIP3      7224            0.0000000000
     46587      7424  TIP3      H1              6.4221551938       -4.2854635373      -37.5185165535  TIP3      7224            0.0000000000
     46588      7424  TIP3      H2              6.5812965536       -5.4313829091      -36.5563979210  TIP3      7224            0.0000000000
     46589      7425  TIP3      OH2             4.1975277062       -4.2973254371      -44.0578309221  TIP3      7225            0.0000000000
     46590      7425  TIP3      H1              3.2308346882       -4.1544073757      -43.9617594980  TIP3      7225            0.0000000000
     46591      7425  TIP3      H2              4.5602191025       -3.4436746379      -43.7555489083  TIP3      7225            0.0000000000
     46592      7426  TIP3      OH2             9.4787371575       -9.1023623650      -37.6223441924  TIP3      7226            0.0000000000
     46593      7426  TIP3      H1              9.1659024354       -9.2846142212      -36.7121224223  TIP3      7226            0.0000000000
     46594      7426  TIP3      H2             10.1291970904       -9.8050296460      -37.7826975533  TIP3      7226            0.0000000000
     46595      7427  TIP3      OH2            11.7228096951       -8.0911411113      -48.4343825884  TIP3      7227            0.0000000000
     46596      7427  TIP3      H1             12.1246765512       -8.4955321833      -47.6618404322  TIP3      7227            0.0000000000
     46597      7427  TIP3      H2             10.7751559719       -8.1979095097      -48.3555700734  TIP3      7227            0.0000000000
     46598      7428  TIP3      OH2            12.2729159553       -4.4839802477      -35.1029784155  TIP3      7228            0.0000000000
     46599      7428  TIP3      H1             11.6307591103       -5.0121126589      -35.6115511067  TIP3      7228            0.0000000000
     46600      7428  TIP3      H2             12.5102351404       -3.8248395966      -35.7894104194  TIP3      7228            0.0000000000
     46601      7429  TIP3      OH2            16.2942022661       -3.6133767926      -48.3064975089  TIP3      7229            0.0000000000
     46602      7429  TIP3      H1             16.9974782294       -2.9598525942      -48.4562452564  TIP3      7229            0.0000000000
     46603      7429  TIP3      H2             15.5727889187       -3.0308496324      -47.9692951471  TIP3      7229            0.0000000000
     46604      7430  TIP3      OH2             0.3667547938      -17.2562017734      -35.7351741508  TIP3      7230            0.0000000000
     46605      7430  TIP3      H1             -0.5396236049      -16.9048712564      -35.7547524279  TIP3      7230            0.0000000000
     46606      7430  TIP3      H2              0.2555983019      -18.1017001885      -35.2725751190  TIP3      7230            0.0000000000
     46607      7431  TIP3      OH2            12.6368324062       -9.4016180040      -46.2521591985  TIP3      7231            0.0000000000
     46608      7431  TIP3      H1             12.5402082570      -10.1850678881      -45.6824786281  TIP3      7231            0.0000000000
     46609      7431  TIP3      H2             13.6040144398       -9.2851611574      -46.1292018150  TIP3      7231            0.0000000000
     46610      7432  TIP3      OH2            -0.0238826338       -5.4755389878      -37.3094604264  TIP3      7232            0.0000000000
     46611      7432  TIP3      H1              0.2856069372       -6.3954898490      -37.3009651226  TIP3      7232            0.0000000000
     46612      7432  TIP3      H2              0.2416709683       -5.1831223929      -36.4295347671  TIP3      7232            0.0000000000
     46613      7433  TIP3      OH2             4.7391395821       -7.3997985359      -47.5834860169  TIP3      7233            0.0000000000
     46614      7433  TIP3      H1              4.9893563216       -7.9365073176      -46.8257060690  TIP3      7233            0.0000000000
     46615      7433  TIP3      H2              4.7875771917       -6.4793888343      -47.2521003321  TIP3      7233            0.0000000000
     46616      7434  TIP3      OH2             1.2393370658      -10.1871970922      -47.1168411224  TIP3      7234            0.0000000000
     46617      7434  TIP3      H1              0.5526555163       -9.7747574440      -46.5588980211  TIP3      7234            0.0000000000
     46618      7434  TIP3      H2              1.7758602703       -9.4082941684      -47.3563998644  TIP3      7234            0.0000000000
     46619      7435  TIP3      OH2             9.0995423425      -17.4871371044      -36.7673958029  TIP3      7235            0.0000000000
     46620      7435  TIP3      H1              9.8151987143      -17.4236011033      -36.1262666169  TIP3      7235            0.0000000000
     46621      7435  TIP3      H2              8.7142859449      -18.3617775238      -36.5626975295  TIP3      7235            0.0000000000
     46622      7436  TIP3      OH2             9.8184116436      -17.9200103083      -45.6362816844  TIP3      7236            0.0000000000
     46623      7436  TIP3      H1             10.0665652030      -17.4637184166      -46.4702158690  TIP3      7236            0.0000000000
     46624      7436  TIP3      H2             10.4280341486      -17.4816620205      -45.0355660392  TIP3      7236            0.0000000000
     46625      7437  TIP3      OH2             7.5580583550       -5.7840149715      -46.9177975812  TIP3      7237            0.0000000000
     46626      7437  TIP3      H1              6.7366106664       -5.2746636757      -46.7846390334  TIP3      7237            0.0000000000
     46627      7437  TIP3      H2              8.0551961292       -5.1863275174      -47.4877676830  TIP3      7237            0.0000000000
     46628      7438  TIP3      OH2             7.0844322521      -16.1701354934      -44.8656424784  TIP3      7238            0.0000000000
     46629      7438  TIP3      H1              7.8566452557      -15.5701722086      -44.8244937723  TIP3      7238            0.0000000000
     46630      7438  TIP3      H2              6.8096043567      -16.2943718654      -43.9365172131  TIP3      7238            0.0000000000
     46631      7439  TIP3      OH2             7.6266050628      -15.1367459620      -35.6732373670  TIP3      7239            0.0000000000
     46632      7439  TIP3      H1              7.7024475494      -14.5826010686      -34.8712503748  TIP3      7239            0.0000000000
     46633      7439  TIP3      H2              8.2891543606      -15.8325976235      -35.5773261362  TIP3      7239            0.0000000000
     46634      7440  TIP3      OH2             7.9245239138      -19.1105968879      -43.9845220160  TIP3      7240            0.0000000000
     46635      7440  TIP3      H1              7.6001976016      -18.4504130440      -43.3469587188  TIP3      7240            0.0000000000
     46636      7440  TIP3      H2              8.6195381648      -18.5634805314      -44.4275347796  TIP3      7240            0.0000000000
     46637      7441  TIP3      OH2             4.9038418903       -4.7009500134      -46.8113268850  TIP3      7241            0.0000000000
     46638      7441  TIP3      H1              5.0800756154       -3.8854284350      -47.3343314308  TIP3      7241            0.0000000000
     46639      7441  TIP3      H2              4.6443015358       -4.3456404906      -45.9388999625  TIP3      7241            0.0000000000
     46640      7442  TIP3      OH2             3.5887262479      -18.0042858519      -47.2337110661  TIP3      7242            0.0000000000
     46641      7442  TIP3      H1              3.5277967697      -17.1016596076      -46.8487774537  TIP3      7242            0.0000000000
     46642      7442  TIP3      H2              4.5001440108      -18.2245161056      -46.9599129399  TIP3      7242            0.0000000000
     46643      7443  TIP3      OH2            13.7994055853      -17.2729859096      -34.8285586643  TIP3      7243            0.0000000000
     46644      7443  TIP3      H1             12.8721483988      -16.9546599895      -34.9582015733  TIP3      7243            0.0000000000
     46645      7443  TIP3      H2             14.1044534637      -17.2811819958      -35.7515558278  TIP3      7243            0.0000000000
     46646      7444  TIP3      OH2            12.4204167895      -13.4772258462      -40.8071938355  TIP3      7244            0.0000000000
     46647      7444  TIP3      H1             11.5995356901      -13.9282961316      -41.0894629616  TIP3      7244            0.0000000000
     46648      7444  TIP3      H2             12.9038215453      -14.1686032213      -40.3034456210  TIP3      7244            0.0000000000
     46649      7445  TIP3      OH2             1.8612318148       -7.6040649220      -48.1126804792  TIP3      7245            0.0000000000
     46650      7445  TIP3      H1              2.4952616613       -6.9077058161      -47.9094256681  TIP3      7245            0.0000000000
     46651      7445  TIP3      H2              2.2774359807       -7.9734890241      -48.9215216499  TIP3      7245            0.0000000000
     46652      7446  TIP3      OH2             0.1877112007      -14.8797718844      -48.9642182513  TIP3      7246            0.0000000000
     46653      7446  TIP3      H1              0.1731837849      -13.9104862638      -48.8636847897  TIP3      7246            0.0000000000
     46654      7446  TIP3      H2             -0.6541388120      -15.0783872560      -49.4140966906  TIP3      7246            0.0000000000
     46655      7447  TIP3      OH2            13.4841990911       -4.2125220571      -39.1406803232  TIP3      7247            0.0000000000
     46656      7447  TIP3      H1             13.4172731034       -3.5398763279      -39.8422931184  TIP3      7247            0.0000000000
     46657      7447  TIP3      H2             14.4535908559       -4.1871788562      -38.9660711260  TIP3      7247            0.0000000000
     46658      7448  TIP3      OH2             0.9741592253      -20.0995747696      -40.3383358974  TIP3      7248            0.0000000000
     46659      7448  TIP3      H1              0.7804175833      -20.0823042510      -41.3028874413  TIP3      7248            0.0000000000
     46660      7448  TIP3      H2              0.5599480970      -20.9527062094      -40.0897721469  TIP3      7248            0.0000000000
     46661      7449  TIP3      OH2            -0.0696040366       -6.1783706615      -44.1995470564  TIP3      7249            0.0000000000
     46662      7449  TIP3      H1             -0.9276157716       -5.7326191669      -44.2405601412  TIP3      7249            0.0000000000
     46663      7449  TIP3      H2              0.4141402694       -5.7174849608      -44.8928253825  TIP3      7249            0.0000000000
     46664      7450  TIP3      OH2            -0.8703352775       -3.5247779766      -32.9187993645  TIP3      7250            0.0000000000
     46665      7450  TIP3      H1             -0.2626334784       -3.7256161601      -32.1780351706  TIP3      7250            0.0000000000
     46666      7450  TIP3      H2             -1.2674637694       -4.3958305815      -33.0967091631  TIP3      7250            0.0000000000
     46667      7451  TIP3      OH2             3.8128775567       -4.6069937383      -31.3042581623  TIP3      7251            0.0000000000
     46668      7451  TIP3      H1              4.5712546457       -5.1069874766      -30.9735899320  TIP3      7251            0.0000000000
     46669      7451  TIP3      H2              3.7883351655       -4.8863468406      -32.2422093659  TIP3      7251            0.0000000000
     46670      7452  TIP3      OH2             7.8724144908       -5.1544722925      -49.9836614203  TIP3      7252            0.0000000000
     46671      7452  TIP3      H1              7.2489952179       -5.8034949158      -49.6388894115  TIP3      7252            0.0000000000
     46672      7452  TIP3      H2              8.6654150768       -5.6866703352      -50.1180639545  TIP3      7252            0.0000000000
     46673      7453  TIP3      OH2            10.3158095958       -6.2241967377      -32.5560380328  TIP3      7253            0.0000000000
     46674      7453  TIP3      H1             10.0022599434       -7.1117384402      -32.2809294716  TIP3      7253            0.0000000000
     46675      7453  TIP3      H2             11.0861702075       -6.1044833940      -31.9655892993  TIP3      7253            0.0000000000
     46676      7454  TIP3      OH2            12.1012679014       -5.4742578865      -49.3054187253  TIP3      7254            0.0000000000
     46677      7454  TIP3      H1             12.6865381558       -6.1737821268      -48.9823557729  TIP3      7254            0.0000000000
     46678      7454  TIP3      H2             12.7398278023       -5.0143550989      -49.9280696406  TIP3      7254            0.0000000000
     46679      7455  TIP3      OH2            -0.9580094289       -9.7550722910      -31.9178169143  TIP3      7255            0.0000000000
     46680      7455  TIP3      H1             -0.7910493845      -10.6664355597      -32.2191809975  TIP3      7255            0.0000000000
     46681      7455  TIP3      H2             -1.6966682883       -9.4971213127      -32.4937013304  TIP3      7255            0.0000000000
     46682      7456  TIP3      OH2             3.4833299605       -9.4637733267      -49.8020366826  TIP3      7256            0.0000000000
     46683      7456  TIP3      H1              3.5543843438      -10.2333967047      -49.2273491051  TIP3      7256            0.0000000000
     46684      7456  TIP3      H2              4.1549996982       -9.5691468874      -50.4824254130  TIP3      7256            0.0000000000
     46685      7457  TIP3      OH2             5.7602458261       -9.7676829532      -32.5338713670  TIP3      7257            0.0000000000
     46686      7457  TIP3      H1              5.4259452207       -9.4528209772      -33.3972915980  TIP3      7257            0.0000000000
     46687      7457  TIP3      H2              5.8337696801      -10.7439377606      -32.6428376136  TIP3      7257            0.0000000000
     46688      7458  TIP3      OH2            11.4644233285       -9.9025621738      -35.1420575838  TIP3      7258            0.0000000000
     46689      7458  TIP3      H1             12.2555364247       -9.3191391588      -35.2126535817  TIP3      7258            0.0000000000
     46690      7458  TIP3      H2             10.7613051861       -9.2369314029      -35.1069300439  TIP3      7258            0.0000000000
     46691      7459  TIP3      OH2            -0.0329454679      -12.5295269353      -32.5387041080  TIP3      7259            0.0000000000
     46692      7459  TIP3      H1              0.3840968477      -13.3926451094      -32.6286720086  TIP3      7259            0.0000000000
     46693      7459  TIP3      H2             -0.2666866661      -12.5236131738      -31.5965228611  TIP3      7259            0.0000000000
     46694      7460  TIP3      OH2             4.5786695383      -11.4100013079      -47.4921858611  TIP3      7260            0.0000000000
     46695      7460  TIP3      H1              4.1005920524      -11.8981526060      -46.8005143912  TIP3      7260            0.0000000000
     46696      7460  TIP3      H2              4.9206097170      -12.1302612302      -48.0665295583  TIP3      7260            0.0000000000
     46697      7461  TIP3      OH2             3.8631823004      -13.5861594682      -35.1860041591  TIP3      7261            0.0000000000
     46698      7461  TIP3      H1              3.2675080883      -12.8642186950      -34.9291404242  TIP3      7261            0.0000000000
     46699      7461  TIP3      H2              4.2621946379      -13.2176729298      -35.9925191477  TIP3      7261            0.0000000000
     46700      7462  TIP3      OH2             5.7692951601      -13.1873238358      -49.1645420274  TIP3      7262            0.0000000000
     46701      7462  TIP3      H1              5.5336584820      -13.3062616873      -50.1007046551  TIP3      7262            0.0000000000
     46702      7462  TIP3      H2              6.7400817918      -13.1080414939      -49.1533751639  TIP3      7262            0.0000000000
     46703      7463  TIP3      OH2             8.9390183224      -11.0144824206      -31.8462540934  TIP3      7263            0.0000000000
     46704      7463  TIP3      H1              9.8952277872      -11.0298142490      -31.9729521346  TIP3      7263            0.0000000000
     46705      7463  TIP3      H2              8.7670172748      -11.7824429970      -31.2780129559  TIP3      7263            0.0000000000
     46706      7464  TIP3      OH2            14.7566689987      -11.1081887139       50.2313714917  TIP3      7264            0.0000000000
     46707      7464  TIP3      H1             14.8609957895      -11.3553582769       49.3106947008  TIP3      7264            0.0000000000
     46708      7464  TIP3      H2             14.9943201460      -10.1533561272       50.1182771494  TIP3      7264            0.0000000000
     46709      7465  TIP3      OH2             4.2694079775      -16.2073525445      -34.1292893957  TIP3      7265            0.0000000000
     46710      7465  TIP3      H1              4.3871307755      -16.9158231226      -34.7887718187  TIP3      7265            0.0000000000
     46711      7465  TIP3      H2              4.2254566401      -15.3959722646      -34.6776208338  TIP3      7265            0.0000000000
     46712      7466  TIP3      OH2             4.6746237007      -17.8252199566      -36.5730183350  TIP3      7266            0.0000000000
     46713      7466  TIP3      H1              5.1824328092      -17.3596543994      -37.2799607808  TIP3      7266            0.0000000000
     46714      7466  TIP3      H2              3.7806595451      -17.9024775048      -36.9782206426  TIP3      7266            0.0000000000
     46715      7467  TIP3      OH2             6.2142756240      -12.3305866596      -36.3229101342  TIP3      7267            0.0000000000
     46716      7467  TIP3      H1              6.9654651941      -12.5003385101      -36.9008177733  TIP3      7267            0.0000000000
     46717      7467  TIP3      H2              5.8461988906      -11.5005874907      -36.6675711727  TIP3      7267            0.0000000000
     46718      7468  TIP3      OH2            10.6058843480      -14.5863557913      -31.3720024547  TIP3      7268            0.0000000000
     46719      7468  TIP3      H1             10.8412769787      -15.5211784175      -31.4598249462  TIP3      7268            0.0000000000
     46720      7468  TIP3      H2             11.4685423495      -14.1412319899      -31.3366964666  TIP3      7268            0.0000000000
     46721      7469  TIP3      OH2            11.9524180906      -11.7883634810      -33.2017246497  TIP3      7269            0.0000000000
     46722      7469  TIP3      H1             11.6994103917      -11.0684198977      -33.8200824386  TIP3      7269            0.0000000000
     46723      7469  TIP3      H2             12.9097622478      -11.8206531122      -33.3918392944  TIP3      7269            0.0000000000
     46724      7470  TIP3      OH2             2.7320692578      -14.9577985484      -32.2064649723  TIP3      7270            0.0000000000
     46725      7470  TIP3      H1              1.9618003451      -15.5343331087      -32.3745194401  TIP3      7270            0.0000000000
     46726      7470  TIP3      H2              3.3833459231      -15.3246699619      -32.8316508537  TIP3      7270            0.0000000000
     46727      7471  TIP3      OH2             5.4644386920      -20.3888122612      -36.1894495629  TIP3      7271            0.0000000000
     46728      7471  TIP3      H1              5.2781711388      -19.4248815200      -36.2832012429  TIP3      7271            0.0000000000
     46729      7471  TIP3      H2              4.7135153941      -20.7558804950      -36.6877829822  TIP3      7271            0.0000000000
     46730      7472  TIP3      OH2             6.7338651388      -16.0588408370      -32.5598872502  TIP3      7272            0.0000000000
     46731      7472  TIP3      H1              6.4222474908      -16.2904639552      -31.6631219291  TIP3      7272            0.0000000000
     46732      7472  TIP3      H2              5.9513223193      -16.2634678442      -33.0989075916  TIP3      7272            0.0000000000
     46733      7473  TIP3      OH2             9.4542852961      -16.9150758460      -33.4655824503  TIP3      7273            0.0000000000
     46734      7473  TIP3      H1              8.4893621702      -16.8597261741      -33.3564344091  TIP3      7273            0.0000000000
     46735      7473  TIP3      H2              9.7172091617      -17.5547772974      -32.7755364691  TIP3      7273            0.0000000000
     46736      7474  TIP3      OH2            11.0333374528      -18.2854030526      -31.5638490982  TIP3      7274            0.0000000000
     46737      7474  TIP3      H1             10.9901258625      -19.2612989060      -31.5322506171  TIP3      7274            0.0000000000
     46738      7474  TIP3      H2             10.7780721109      -17.9976217953      -30.6639800356  TIP3      7274            0.0000000000
     46739      7475  TIP3      OH2             0.8069266495      -17.0182991312      -32.4505110625  TIP3      7275            0.0000000000
     46740      7475  TIP3      H1              1.0569500042      -17.7544373453      -33.0360660833  TIP3      7275            0.0000000000
     46741      7475  TIP3      H2              0.7190255541      -17.4657509034      -31.5861972968  TIP3      7275            0.0000000000
     46742      7476  TIP3      OH2             5.6867024169      -21.0012229321      -33.4843428638  TIP3      7276            0.0000000000
     46743      7476  TIP3      H1              6.3644413341      -21.7061879438      -33.5087599961  TIP3      7276            0.0000000000
     46744      7476  TIP3      H2              5.5645848039      -20.8510316227      -34.4423192005  TIP3      7276            0.0000000000
     46745      7477  TIP3      OH2             6.0369855707      -19.3839170472      -31.3663270820  TIP3      7277            0.0000000000
     46746      7477  TIP3      H1              5.8652765082      -19.8881723580      -32.1997150286  TIP3      7277            0.0000000000
     46747      7477  TIP3      H2              5.4402489953      -18.6167707401      -31.4682402903  TIP3      7277            0.0000000000
     46748      7478  TIP3      OH2             5.5161756924       -2.4672256008      -48.2042671492  TIP3      7278            0.0000000000
     46749      7478  TIP3      H1              6.4864940879       -2.3667510703      -48.1291545721  TIP3      7278            0.0000000000
     46750      7478  TIP3      H2              5.3111914625       -1.8456302618      -48.9123685263  TIP3      7278            0.0000000000
     46751      7479  TIP3      OH2            -0.8474510883       -7.9000079404      -48.6375564655  TIP3      7279            0.0000000000
     46752      7479  TIP3      H1              0.1183668707       -7.7982088384      -48.4964547987  TIP3      7279            0.0000000000
     46753      7479  TIP3      H2             -0.8619298565       -8.5015427367      -49.3965663640  TIP3      7279            0.0000000000
     46754      7480  TIP3      OH2            -2.1600264030       -2.5158184943      -43.7656985062  TIP3      7280            0.0000000000
     46755      7480  TIP3      H1             -2.8798323396       -3.0030537535      -44.2263819808  TIP3      7280            0.0000000000
     46756      7480  TIP3      H2             -1.8879144435       -3.1598804442      -43.0859952833  TIP3      7280            0.0000000000
     46757      7481  TIP3      OH2            -1.3300890280       -4.3722547198      -41.8791086634  TIP3      7281            0.0000000000
     46758      7481  TIP3      H1             -1.6894302949       -5.2495599525      -41.6829709088  TIP3      7281            0.0000000000
     46759      7481  TIP3      H2             -1.1132787549       -4.0379960206      -40.9947446824  TIP3      7281            0.0000000000
     46760      7482  TIP3      OH2            16.1421076830       -3.4695753264      -38.9765835527  TIP3      7282            0.0000000000
     46761      7482  TIP3      H1             16.2396947262       -3.4771519362      -38.0107440357  TIP3      7282            0.0000000000
     46762      7482  TIP3      H2             16.9403616996       -3.0122786262      -39.2463334848  TIP3      7282            0.0000000000
     46763      7483  TIP3      OH2            15.7201828306       -3.9784067420      -35.9569157099  TIP3      7283            0.0000000000
     46764      7483  TIP3      H1             15.3553686255       -4.7702013575      -36.4220926402  TIP3      7283            0.0000000000
     46765      7483  TIP3      H2             16.2839710472       -4.4656417568      -35.3325419362  TIP3      7283            0.0000000000
     46766      7484  TIP3      OH2            14.2186817834       -8.2603407413      -31.3341011480  TIP3      7284            0.0000000000
     46767      7484  TIP3      H1             13.3130333977       -8.2867550817      -30.9712349493  TIP3      7284            0.0000000000
     46768      7484  TIP3      H2             14.5907663825       -7.4553946234      -30.9246371026  TIP3      7284            0.0000000000
     46769      7485  TIP3      OH2            15.5115558123       -9.9159099079      -45.8782095481  TIP3      7285            0.0000000000
     46770      7485  TIP3      H1             16.3958839380       -9.5366057465      -45.7259262267  TIP3      7285            0.0000000000
     46771      7485  TIP3      H2             15.5429367883      -10.6505210421      -45.2248049766  TIP3      7285            0.0000000000
     46772      7486  TIP3      OH2            15.8840433252      -11.8317433107      -44.0070350123  TIP3      7286            0.0000000000
     46773      7486  TIP3      H1             15.1571181361      -12.3708485320      -43.6236385194  TIP3      7286            0.0000000000
     46774      7486  TIP3      H2             16.4900621898      -11.7094587695      -43.2524776077  TIP3      7286            0.0000000000
     46775      7487  TIP3      OH2            15.6162275547       -9.1849986861      -39.1044058132  TIP3      7287            0.0000000000
     46776      7487  TIP3      H1             16.4722182514       -9.5289406268      -39.4061028121  TIP3      7287            0.0000000000
     46777      7487  TIP3      H2             15.7994279415       -8.2174624369      -39.1022643469  TIP3      7287            0.0000000000
     46778      7488  TIP3      OH2            14.0632975354       -6.2282394498      -36.6982575107  TIP3      7288            0.0000000000
     46779      7488  TIP3      H1             13.3751100224       -5.8950544424      -36.1341257307  TIP3      7288            0.0000000000
     46780      7488  TIP3      H2             13.6309953045       -6.6495215436      -37.4618262803  TIP3      7288            0.0000000000
     46781      7489  TIP3      OH2            16.1967034681      -12.0030638990      -47.6178402970  TIP3      7289            0.0000000000
     46782      7489  TIP3      H1             15.6400783206      -11.6803909666      -48.3592887821  TIP3      7289            0.0000000000
     46783      7489  TIP3      H2             16.1111696779      -11.2887941967      -46.9611826670  TIP3      7289            0.0000000000
     46784      7490  TIP3      OH2            14.5217176863      -14.7273527636      -48.7717723311  TIP3      7290            0.0000000000
     46785      7490  TIP3      H1             14.6877028866      -14.1065947066      -49.5071958162  TIP3      7290            0.0000000000
     46786      7490  TIP3      H2             14.5736976935      -15.5740119418      -49.2530171402  TIP3      7290            0.0000000000
     46787      7491  TIP3      OH2            13.6801159137      -13.3714323188      -43.4444093044  TIP3      7291            0.0000000000
     46788      7491  TIP3      H1             13.5817699934      -14.3370138792      -43.4787283389  TIP3      7291            0.0000000000
     46789      7491  TIP3      H2             13.4015914232      -13.1813724273      -42.5300214325  TIP3      7291            0.0000000000
     46790      7492  TIP3      OH2            -1.2789525500      -11.2941036693      -39.3875078232  TIP3      7292            0.0000000000
     46791      7492  TIP3      H1             -1.1021042561      -11.3772915984      -40.3506274069  TIP3      7292            0.0000000000
     46792      7492  TIP3      H2             -0.3857605986      -11.4738307215      -39.0359575042  TIP3      7292            0.0000000000
     46793      7493  TIP3      OH2            14.5786905301      -11.4119075778      -33.7630248420  TIP3      7293            0.0000000000
     46794      7493  TIP3      H1             15.1883064394      -12.1690521351      -33.6272937620  TIP3      7293            0.0000000000
     46795      7493  TIP3      H2             15.1828073941      -10.6355054674      -33.7713441776  TIP3      7293            0.0000000000
     46796      7494  TIP3      OH2            16.0780515744      -13.5361117200      -33.1072651215  TIP3      7294            0.0000000000
     46797      7494  TIP3      H1             15.1950312769      -13.9343715549      -33.2626278339  TIP3      7294            0.0000000000
     46798      7494  TIP3      H2             16.6482927630      -14.3191254191      -33.1846482931  TIP3      7294            0.0000000000
     46799      7495  TIP3      OH2            13.7954403251      -17.4579788186      -49.9534135835  TIP3      7295            0.0000000000
     46800      7495  TIP3      H1             14.3873566706      -17.8568462453      -49.2899525744  TIP3      7295            0.0000000000
     46801      7495  TIP3      H2             12.9146183040      -17.8010807340      -49.7463345186  TIP3      7295            0.0000000000
     46802      7496  TIP3      OH2            13.3717339851      -15.8163142850      -45.0098647317  TIP3      7296            0.0000000000
     46803      7496  TIP3      H1             13.6828804746      -16.7390799074      -44.8624248140  TIP3      7296            0.0000000000
     46804      7496  TIP3      H2             14.1701639140      -15.4056168776      -45.3722192508  TIP3      7296            0.0000000000
     46805      7497  TIP3      OH2            14.0227151394      -15.2553530560      -39.5469978824  TIP3      7297            0.0000000000
     46806      7497  TIP3      H1             14.9834468828      -15.0252384748      -39.5596977506  TIP3      7297            0.0000000000
     46807      7497  TIP3      H2             13.8355395545      -15.1148172105      -38.6066435956  TIP3      7297            0.0000000000
     46808      7498  TIP3      OH2            14.0815910375      -14.5428376149      -36.7709510765  TIP3      7298            0.0000000000
     46809      7498  TIP3      H1             13.2047230830      -14.2418077915      -36.4511119576  TIP3      7298            0.0000000000
     46810      7498  TIP3      H2             14.5224090693      -13.6842206740      -36.9906730931  TIP3      7298            0.0000000000
     46811      7499  TIP3      OH2            -1.6581153098      -15.9923891406      -33.2275066935  TIP3      7299            0.0000000000
     46812      7499  TIP3      H1             -0.7212031144      -16.2088997298      -33.0421601339  TIP3      7299            0.0000000000
     46813      7499  TIP3      H2             -2.1171654561      -16.8189035835      -32.9625368525  TIP3      7299            0.0000000000
     46814      7500  TIP3      OH2            16.3631426012      -20.4699240454      -31.4260617164  TIP3      7300            0.0000000000
     46815      7500  TIP3      H1             16.7142688166      -21.1290346328      -32.0499868640  TIP3      7300            0.0000000000
     46816      7500  TIP3      H2             16.4601172548      -19.6550612670      -31.9605025466  TIP3      7300            0.0000000000
     46817      7501  TIP3      OH2            14.0603145784      -18.5212308091      -44.9461408050  TIP3      7301            0.0000000000
     46818      7501  TIP3      H1             14.2694714033      -18.9518669315      -44.0878633298  TIP3      7301            0.0000000000
     46819      7501  TIP3      H2             13.4431914491      -19.1453647944      -45.3815999032  TIP3      7301            0.0000000000
     46820      7502  TIP3      OH2            -0.4590836263      -17.7045412740      -40.3856832290  TIP3      7302            0.0000000000
     46821      7502  TIP3      H1             -0.0013740230      -18.5327229414      -40.1307940755  TIP3      7302            0.0000000000
     46822      7502  TIP3      H2              0.0928469787      -17.0143993857      -39.9962325871  TIP3      7302            0.0000000000
     46823      7503  TIP3      OH2            -2.1788441661      -14.7022578507      -39.3506226320  TIP3      7303            0.0000000000
     46824      7503  TIP3      H1             -1.6149105604      -14.9545604320      -40.1101112862  TIP3      7303            0.0000000000
     46825      7503  TIP3      H2             -1.7094596712      -13.8997818887      -39.0809191027  TIP3      7303            0.0000000000
     46826      7504  TIP3      OH2            15.8837915301      -18.3724378315      -33.0724370818  TIP3      7304            0.0000000000
     46827      7504  TIP3      H1             14.9479476763      -18.0984728913      -33.1294007878  TIP3      7304            0.0000000000
     46828      7504  TIP3      H2             15.9151796022      -18.9226286182      -33.8694029590  TIP3      7304            0.0000000000
     46829      7505  TIP3      OH2            15.8972901734      -18.4643783694      -48.3631417658  TIP3      7305            0.0000000000
     46830      7505  TIP3      H1             16.3113167209      -19.1453724981      -48.9113908109  TIP3      7305            0.0000000000
     46831      7505  TIP3      H2             16.5920619998      -17.7855540806      -48.3740857607  TIP3      7305            0.0000000000
     46832      7506  TIP3      OH2            -1.8157514115      -18.4351469666      -45.2727803162  TIP3      7306            0.0000000000
     46833      7506  TIP3      H1             -2.7573483268      -18.2630165497      -45.4136318206  TIP3      7306            0.0000000000
     46834      7506  TIP3      H2             -1.4133451939      -17.9322572312      -46.0002547412  TIP3      7306            0.0000000000
     46835      7507  TIP3      OH2            12.9325379221       -3.4970927516      -43.3414163832  TIP3      7307            0.0000000000
     46836      7507  TIP3      H1             13.6067999570       -3.8045328867      -43.9674313017  TIP3      7307            0.0000000000
     46837      7507  TIP3      H2             13.4506945424       -3.0190055748      -42.6733335062  TIP3      7307            0.0000000000
     46838      7508  TIP3      OH2            -1.8654576129      -19.7954014357      -36.9837892997  TIP3      7308            0.0000000000
     46839      7508  TIP3      H1             -2.5323728878      -19.9842260650      -36.3005097451  TIP3      7308            0.0000000000
     46840      7508  TIP3      H2             -2.3222144252      -19.1181129373      -37.5223583570  TIP3      7308            0.0000000000
     46841      7509  TIP3      OH2             0.3760144051       -6.5999307467      -32.8194521503  TIP3      7309            0.0000000000
     46842      7509  TIP3      H1             -0.4616581272       -6.3712280681      -33.2563429342  TIP3      7309            0.0000000000
     46843      7509  TIP3      H2              0.1077158401       -6.6684207726      -31.9004006791  TIP3      7309            0.0000000000
     46844      7510  TIP3      OH2             3.2741743296       -5.5828026612      -36.5390403477  TIP3      7310            0.0000000000
     46845      7510  TIP3      H1              2.9472125296       -4.7149983712      -36.8123063544  TIP3      7310            0.0000000000
     46846      7510  TIP3      H2              4.2009538153       -5.5009969697      -36.8449083130  TIP3      7310            0.0000000000
     46847      7511  TIP3      OH2             7.5950659573       -4.1597849189      -33.6387596483  TIP3      7311            0.0000000000
     46848      7511  TIP3      H1              7.7323691250       -4.5151517724      -32.7296610158  TIP3      7311            0.0000000000
     46849      7511  TIP3      H2              8.4983275274       -3.8584008771      -33.8787737068  TIP3      7311            0.0000000000
     46850      7512  TIP3      OH2             9.8785072999       -2.8931635007      -34.3226980465  TIP3      7312            0.0000000000
     46851      7512  TIP3      H1             10.6132174085       -3.4794829591      -34.5649370342  TIP3      7312            0.0000000000
     46852      7512  TIP3      H2             10.2575205017       -2.4545954587      -33.5319030092  TIP3      7312            0.0000000000
     46853      7513  TIP3      OH2            14.9052992319      -20.2814549977      -35.2205093909  TIP3      7313            0.0000000000
     46854      7513  TIP3      H1             14.0752489798      -19.9820800927      -35.6302086175  TIP3      7313            0.0000000000
     46855      7513  TIP3      H2             15.0706266508      -21.1053890444      -35.7356159817  TIP3      7313            0.0000000000
     46856      7514  TIP3      OH2             0.7049999432       -2.3277029242      -36.5407584182  TIP3      7314            0.0000000000
     46857      7514  TIP3      H1             -0.0461032390       -1.8650857070      -36.9337859763  TIP3      7314            0.0000000000
     46858      7514  TIP3      H2              0.4022619664       -2.5539413023      -35.6475890680  TIP3      7314            0.0000000000
     46859      7515  TIP3      OH2             3.1728049045       -2.7795811971      -37.4727003205  TIP3      7315            0.0000000000
     46860      7515  TIP3      H1              2.2826088715       -2.6334250128      -37.0745603626  TIP3      7315            0.0000000000
     46861      7515  TIP3      H2              3.1187690747       -2.1877631519      -38.2455990342  TIP3      7315            0.0000000000
     46862      7516  TIP3      OH2             7.8724873190       -2.8583992990      -38.3018900339  TIP3      7316            0.0000000000
     46863      7516  TIP3      H1              7.4131286362       -2.3020574877      -38.9487313029  TIP3      7316            0.0000000000
     46864      7516  TIP3      H2              8.0082972638       -2.2271217380      -37.5660760890  TIP3      7316            0.0000000000
     46865      7517  TIP3      OH2            10.1593656493       -4.0541986998      -37.2729601983  TIP3      7317            0.0000000000
     46866      7517  TIP3      H1              9.3081603640       -3.7715092212      -37.6447671598  TIP3      7317            0.0000000000
     46867      7517  TIP3      H2             10.6502494393       -3.2176239372      -37.3628042380  TIP3      7317            0.0000000000
     46868      7518  TIP3      OH2            12.6978517500       -2.4610397079      -37.0536474290  TIP3      7318            0.0000000000
     46869      7518  TIP3      H1             12.6861529093       -1.5051771190      -37.2917453701  TIP3      7318            0.0000000000
     46870      7518  TIP3      H2             12.9686656118       -2.8546297791      -37.9104588913  TIP3      7318            0.0000000000
     46871      7519  TIP3      OH2             0.1602721128       -3.6608272954      -39.5865083838  TIP3      7319            0.0000000000
     46872      7519  TIP3      H1              0.0638023974       -4.1441239425      -38.7380317673  TIP3      7319            0.0000000000
     46873      7519  TIP3      H2              0.9583789528       -4.0621829573      -39.9849272954  TIP3      7319            0.0000000000
     46874      7520  TIP3      OH2             2.2332305597       -4.9884284386      -40.9452062197  TIP3      7320            0.0000000000
     46875      7520  TIP3      H1              2.0710339934       -5.9232076255      -40.7161013168  TIP3      7320            0.0000000000
     46876      7520  TIP3      H2              3.0943513407       -4.8394390459      -40.5004989339  TIP3      7320            0.0000000000
     46877      7521  TIP3      OH2             4.8400297106       -4.5007555989      -40.0712226298  TIP3      7321            0.0000000000
     46878      7521  TIP3      H1              4.9927434672       -5.4278467611      -40.3342141733  TIP3      7321            0.0000000000
     46879      7521  TIP3      H2              4.8836098945       -4.5604520190      -39.1056401949  TIP3      7321            0.0000000000
     46880      7522  TIP3      OH2             8.2858457642      -18.8510535390      -40.9594161167  TIP3      7322            0.0000000000
     46881      7522  TIP3      H1              7.6183639053      -19.4909061068      -40.6565535002  TIP3      7322            0.0000000000
     46882      7522  TIP3      H2              8.8465815649      -19.3931107613      -41.5239058996  TIP3      7322            0.0000000000
     46883      7523  TIP3      OH2            13.4284371252      -20.8120593038      -40.8697713047  TIP3      7323            0.0000000000
     46884      7523  TIP3      H1             14.0396338731      -20.2175338444      -41.3763143170  TIP3      7323            0.0000000000
     46885      7523  TIP3      H2             12.5470061212      -20.4478911566      -41.1002961040  TIP3      7323            0.0000000000
     46886      7524  TIP3      OH2            15.0962651772      -19.5571812209      -42.5960836437  TIP3      7324            0.0000000000
     46887      7524  TIP3      H1             15.7817472418      -20.1330798316      -43.0091246018  TIP3      7324            0.0000000000
     46888      7524  TIP3      H2             15.6049794617      -18.7216707286      -42.4869625055  TIP3      7324            0.0000000000
     46889      7525  TIP3      OH2             0.6572612480      -20.2340862143      -43.0575276815  TIP3      7325            0.0000000000
     46890      7525  TIP3      H1             -0.1300124737      -20.4202154558      -43.6072488582  TIP3      7325            0.0000000000
     46891      7525  TIP3      H2              1.1163670216      -21.0943809107      -43.1216154660  TIP3      7325            0.0000000000
     46892      7526  TIP3      OH2            -0.5396187243      -20.4695330520      -47.4005231315  TIP3      7326            0.0000000000
     46893      7526  TIP3      H1             -0.0957093463      -19.7418308105      -47.8768575240  TIP3      7326            0.0000000000
     46894      7526  TIP3      H2             -1.1168947644      -19.9486849446      -46.8016007758  TIP3      7326            0.0000000000
     46895      7527  TIP3      OH2             5.1311236539      -20.3024402001      -43.2984318638  TIP3      7327            0.0000000000
     46896      7527  TIP3      H1              6.0317468017      -19.9457703200      -43.3747740690  TIP3      7327            0.0000000000
     46897      7527  TIP3      H2              5.0998523359      -20.5218027143      -42.3688355122  TIP3      7327            0.0000000000
     46898      7528  TIP3      OH2            10.8500363604      -20.2851512712      -41.6770605522  TIP3      7328            0.0000000000
     46899      7528  TIP3      H1             10.7947061061      -20.1704422852      -42.6350225254  TIP3      7328            0.0000000000
     46900      7528  TIP3      H2             10.4614528218      -21.1849159331      -41.5434221491  TIP3      7328            0.0000000000
     46901      7529  TIP3      OH2            12.1324344502      -20.2600360565      -46.0063540361  TIP3      7329            0.0000000000
     46902      7529  TIP3      H1             11.3842370487      -19.6677083241      -46.1780700528  TIP3      7329            0.0000000000
     46903      7529  TIP3      H2             11.6796647254      -21.1061774054      -45.7869282534  TIP3      7329            0.0000000000
     46904      7530  TIP3      OH2            -0.6071145126       -4.5185566053      -46.4318994510  TIP3      7330            0.0000000000
     46905      7530  TIP3      H1             -1.3531988685       -4.5364679545      -47.0499977919  TIP3      7330            0.0000000000
     46906      7530  TIP3      H2             -0.6487619644       -3.5852080910      -46.1639849438  TIP3      7330            0.0000000000
     46907      7531  TIP3      OH2             1.2432274637      -18.6699728931      -48.7845563463  TIP3      7331            0.0000000000
     46908      7531  TIP3      H1              1.7997066587      -19.0796917147      -49.4375028000  TIP3      7331            0.0000000000
     46909      7531  TIP3      H2              1.8729315561      -18.1526208659      -48.2395377283  TIP3      7331            0.0000000000
     46910      7532  TIP3      OH2             6.2757476894      -18.2813033371      -46.4576157085  TIP3      7332            0.0000000000
     46911      7532  TIP3      H1              6.5484740967      -18.8613616303      -45.7274806589  TIP3      7332            0.0000000000
     46912      7532  TIP3      H2              6.3419883602      -17.4306108438      -45.9705106832  TIP3      7332            0.0000000000
     46913      7533  TIP3      OH2             8.2183740169       -3.2371479300      -48.0120624725  TIP3      7333            0.0000000000
     46914      7533  TIP3      H1              9.1495065918       -2.9689209401      -48.1897692473  TIP3      7333            0.0000000000
     46915      7533  TIP3      H2              8.0303905864       -3.7217374119      -48.8405242803  TIP3      7333            0.0000000000
     46916      7534  TIP3      OH2            14.9440279333       -3.7106791371      -45.3120928544  TIP3      7334            0.0000000000
     46917      7534  TIP3      H1             14.6998515590       -4.4934103262      -45.8608548991  TIP3      7334            0.0000000000
     46918      7534  TIP3      H2             14.8191871335       -2.9666159941      -45.9305974943  TIP3      7334            0.0000000000
     46919      7535  TIP3      OH2             0.5472430448      -19.6859702401      -33.6381078078  TIP3      7335            0.0000000000
     46920      7535  TIP3      H1              0.1573696791      -20.4811084583      -33.2326285665  TIP3      7335            0.0000000000
     46921      7535  TIP3      H2              1.4556624697      -19.7287281422      -33.2539475371  TIP3      7335            0.0000000000
     46922      7536  TIP3      OH2             2.5473262791      -20.3025367773      -31.9907055213  TIP3      7336            0.0000000000
     46923      7536  TIP3      H1              3.4405505735      -20.6390597307      -32.2071350091  TIP3      7336            0.0000000000
     46924      7536  TIP3      H2              2.1741192016      -21.1107892923      -31.5892654038  TIP3      7336            0.0000000000
     46925      7537  TIP3      OH2             1.4926391281       -3.3267068644      -49.0912495059  TIP3      7337            0.0000000000
     46926      7537  TIP3      H1              0.9245154498       -3.3124228561      -48.3144804020  TIP3      7337            0.0000000000
     46927      7537  TIP3      H2              1.9849709829       -4.1569794002      -49.0586434898  TIP3      7337            0.0000000000
     46928      7538  TIP3      OH2            10.9533065231      -21.0150466625      -31.8451391403  TIP3      7338            0.0000000000
     46929      7538  TIP3      H1             11.0420093389      -21.5022404832      -31.0043367003  TIP3      7338            0.0000000000
     46930      7538  TIP3      H2             11.8707393280      -21.0526046467      -32.1874026253  TIP3      7338            0.0000000000
     46931      7539  TIP3      OH2            14.1389998485       -4.9705858171      -33.1764985411  TIP3      7339            0.0000000000
     46932      7539  TIP3      H1             13.3731909115       -5.1061104933      -33.7745826833  TIP3      7339            0.0000000000
     46933      7539  TIP3      H2             14.0458968990       -4.0142692485      -33.0071322358  TIP3      7339            0.0000000000
     46934      7540  TIP3      OH2            28.6084704846      -11.0839317151      -43.2447246639  TIP3      7340            0.0000000000
     46935      7540  TIP3      H1             28.5917327475      -10.1035503622      -43.2688552375  TIP3      7340            0.0000000000
     46936      7540  TIP3      H2             27.8739112347      -11.3206732734      -43.8330369695  TIP3      7340            0.0000000000
     46937      7541  TIP3      OH2            27.4615298722      -11.8342236271      -39.7268807462  TIP3      7341            0.0000000000
     46938      7541  TIP3      H1             27.4449971414      -12.4841674188      -39.0103593844  TIP3      7341            0.0000000000
     46939      7541  TIP3      H2             27.1121954443      -12.3431587550      -40.4784797783  TIP3      7341            0.0000000000
     46940      7542  TIP3      OH2            19.8185210745      -12.1655256508      -38.1811392595  TIP3      7342            0.0000000000
     46941      7542  TIP3      H1             19.8966871187      -12.8482269354      -37.4827912840  TIP3      7342            0.0000000000
     46942      7542  TIP3      H2             20.5625247007      -11.5895607230      -37.9523198008  TIP3      7342            0.0000000000
     46943      7543  TIP3      OH2            31.1451673965       -8.8857455543      -41.4435660505  TIP3      7343            0.0000000000
     46944      7543  TIP3      H1             30.7343099849       -9.6033972043      -40.9515661434  TIP3      7343            0.0000000000
     46945      7543  TIP3      H2             31.1699311058       -8.1769335730      -40.7744401504  TIP3      7343            0.0000000000
     46946      7544  TIP3      OH2            20.7567118797       -7.7020776963      -39.7074261046  TIP3      7344            0.0000000000
     46947      7544  TIP3      H1             20.4171959445       -8.5704228331      -39.9830170160  TIP3      7344            0.0000000000
     46948      7544  TIP3      H2             21.7020949577       -7.9005423514      -39.6255598641  TIP3      7344            0.0000000000
     46949      7545  TIP3      OH2            17.3699300292      -14.1561214507      -44.1858637638  TIP3      7345            0.0000000000
     46950      7545  TIP3      H1             16.9437144373      -13.2827048622      -44.2454390511  TIP3      7345            0.0000000000
     46951      7545  TIP3      H2             16.8175489616      -14.6922927432      -44.7690648776  TIP3      7345            0.0000000000
     46952      7546  TIP3      OH2            18.0849108655      -11.9270354233      -42.0326680861  TIP3      7346            0.0000000000
     46953      7546  TIP3      H1             18.3677229846      -12.7479271486      -41.5860906473  TIP3      7346            0.0000000000
     46954      7546  TIP3      H2             18.7800992808      -11.8001525480      -42.6950343132  TIP3      7346            0.0000000000
     46955      7547  TIP3      OH2            28.2686871605       -3.7140010844      -41.2014319284  TIP3      7347            0.0000000000
     46956      7547  TIP3      H1             28.9116848829       -4.4074655338      -41.4952198075  TIP3      7347            0.0000000000
     46957      7547  TIP3      H2             28.0484519284       -4.0646741386      -40.3384046480  TIP3      7347            0.0000000000
     46958      7548  TIP3      OH2            25.8359723940       -9.4384813306      -39.2545054458  TIP3      7348            0.0000000000
     46959      7548  TIP3      H1             26.1732902335      -10.0618495878      -39.9154994880  TIP3      7348            0.0000000000
     46960      7548  TIP3      H2             26.6475472517       -9.2771740881      -38.7420381955  TIP3      7348            0.0000000000
     46961      7549  TIP3      OH2            34.5080687503      -17.8149558304      -38.5188871221  TIP3      7349            0.0000000000
     46962      7549  TIP3      H1             34.5989026963      -17.1865731530      -37.7715614785  TIP3      7349            0.0000000000
     46963      7549  TIP3      H2             35.0283316838      -17.3486448549      -39.1930958694  TIP3      7349            0.0000000000
     46964      7550  TIP3      OH2            29.0033048756      -14.9658916484      -38.9424093377  TIP3      7350            0.0000000000
     46965      7550  TIP3      H1             29.1724093577      -15.9247515282      -38.9372078991  TIP3      7350            0.0000000000
     46966      7550  TIP3      H2             28.9000575381      -14.8268009450      -39.9036643691  TIP3      7350            0.0000000000
     46967      7551  TIP3      OH2            22.1147439637      -16.8757089496      -41.7298453977  TIP3      7351            0.0000000000
     46968      7551  TIP3      H1             22.2244131305      -16.0417590306      -42.2235092702  TIP3      7351            0.0000000000
     46969      7551  TIP3      H2             21.7175042526      -17.4496590670      -42.4197212895  TIP3      7351            0.0000000000
     46970      7552  TIP3      OH2            29.8559313272      -16.7953951483      -43.3584644191  TIP3      7352            0.0000000000
     46971      7552  TIP3      H1             30.5059431397      -17.1104452763      -42.6886541761  TIP3      7352            0.0000000000
     46972      7552  TIP3      H2             30.4208073646      -16.2254589225      -43.9051120389  TIP3      7352            0.0000000000
     46973      7553  TIP3      OH2            18.7394693900      -14.4649169732      -40.9951428523  TIP3      7353            0.0000000000
     46974      7553  TIP3      H1             19.4096926426      -15.0090522789      -40.5391640975  TIP3      7353            0.0000000000
     46975      7553  TIP3      H2             18.8474921455      -14.7804904908      -41.9052137819  TIP3      7353            0.0000000000
     46976      7554  TIP3      OH2            23.8982899176      -12.9102439499      -41.6715370717  TIP3      7354            0.0000000000
     46977      7554  TIP3      H1             24.5706203103      -13.4914266370      -41.2747630273  TIP3      7354            0.0000000000
     46978      7554  TIP3      H2             23.3844589643      -13.5666834905      -42.1821180619  TIP3      7354            0.0000000000
     46979      7555  TIP3      OH2            34.9018598545      -16.3752126032      -36.2583711538  TIP3      7355            0.0000000000
     46980      7555  TIP3      H1             34.2832886953      -15.6203087546      -36.3825802652  TIP3      7355            0.0000000000
     46981      7555  TIP3      H2             34.9256544974      -16.4438107195      -35.2952546720  TIP3      7355            0.0000000000
     46982      7556  TIP3      OH2            21.0271171720      -17.9761625767      -37.6888055053  TIP3      7356            0.0000000000
     46983      7556  TIP3      H1             20.7440989392      -17.4051769016      -38.4346250290  TIP3      7356            0.0000000000
     46984      7556  TIP3      H2             20.3506689969      -17.7469452669      -37.0059554202  TIP3      7356            0.0000000000
     46985      7557  TIP3      OH2            28.3015154193       -8.4942607265      -44.1437358672  TIP3      7357            0.0000000000
     46986      7557  TIP3      H1             28.0289449179       -8.7825838531      -45.0278701850  TIP3      7357            0.0000000000
     46987      7557  TIP3      H2             28.0017584450       -7.5591269636      -44.1021512609  TIP3      7357            0.0000000000
     46988      7558  TIP3      OH2            23.5458093548      -10.3389235768      -37.4503749761  TIP3      7358            0.0000000000
     46989      7558  TIP3      H1             22.8395252826       -9.6944979690      -37.2277014350  TIP3      7358            0.0000000000
     46990      7558  TIP3      H2             24.2483900612       -9.7367207633      -37.7428641284  TIP3      7358            0.0000000000
     46991      7559  TIP3      OH2            31.6674620246      -17.4473075585      -41.3648358165  TIP3      7359            0.0000000000
     46992      7559  TIP3      H1             31.4415634920      -18.2155213134      -40.8352550367  TIP3      7359            0.0000000000
     46993      7559  TIP3      H2             32.3381247712      -17.0162085560      -40.8079753802  TIP3      7359            0.0000000000
     46994      7560  TIP3      OH2            20.5955583093      -16.1217307422      -39.6503673588  TIP3      7360            0.0000000000
     46995      7560  TIP3      H1             21.2215187921      -15.4302624316      -39.3390570309  TIP3      7360            0.0000000000
     46996      7560  TIP3      H2             21.1101581290      -16.5298909995      -40.3909884510  TIP3      7360            0.0000000000
     46997      7561  TIP3      OH2            21.9828347061       -8.3325931930      -36.6404993839  TIP3      7361            0.0000000000
     46998      7561  TIP3      H1             21.9203802047       -7.4166004808      -36.9718482420  TIP3      7361            0.0000000000
     46999      7561  TIP3      H2             21.0933486781       -8.4034854683      -36.2011943866  TIP3      7361            0.0000000000
     47000      7562  TIP3      OH2            18.0437676954       -8.7332004295      -45.8040166154  TIP3      7362            0.0000000000
     47001      7562  TIP3      H1             17.8167070170       -8.4168862499      -46.7007343614  TIP3      7362            0.0000000000
     47002      7562  TIP3      H2             18.1268845193       -7.8925916116      -45.3104270768  TIP3      7362            0.0000000000
     47003      7563  TIP3      OH2            31.6741391830       -7.0467664425      -39.0762944275  TIP3      7363            0.0000000000
     47004      7563  TIP3      H1             30.7059858446       -6.9327994290      -38.9582654181  TIP3      7363            0.0000000000
     47005      7563  TIP3      H2             31.9421641066       -6.1323630057      -39.2805802284  TIP3      7363            0.0000000000
     47006      7564  TIP3      OH2            31.9845022927      -18.7570901191      -37.6865781498  TIP3      7364            0.0000000000
     47007      7564  TIP3      H1             31.2608990317      -18.1191508648      -37.7816561215  TIP3      7364            0.0000000000
     47008      7564  TIP3      H2             32.7030604658      -18.3503930196      -38.2089506348  TIP3      7364            0.0000000000
     47009      7565  TIP3      OH2            24.9606745729      -20.6322130882      -40.2192001630  TIP3      7365            0.0000000000
     47010      7565  TIP3      H1             24.8207576741      -21.5935294175      -40.2879851741  TIP3      7365            0.0000000000
     47011      7565  TIP3      H2             24.0813977296      -20.3311577598      -39.9146072211  TIP3      7365            0.0000000000
     47012      7566  TIP3      OH2            29.9434375111       -5.2645646524      -42.4733657341  TIP3      7366            0.0000000000
     47013      7566  TIP3      H1             30.3533427032       -5.9874874506      -42.9939011788  TIP3      7366            0.0000000000
     47014      7566  TIP3      H2             30.3697836688       -4.4776223824      -42.8758277879  TIP3      7366            0.0000000000
     47015      7567  TIP3      OH2            31.1440788808       -7.3429355170      -43.9529019728  TIP3      7367            0.0000000000
     47016      7567  TIP3      H1             30.8559468190       -8.0299714589      -44.5802539497  TIP3      7367            0.0000000000
     47017      7567  TIP3      H2             31.1794917456       -7.8445243635      -43.1202817363  TIP3      7367            0.0000000000
     47018      7568  TIP3      OH2            32.7663515995       -8.7393085519      -35.4766754393  TIP3      7368            0.0000000000
     47019      7568  TIP3      H1             32.9096163788       -9.3944906781      -36.1942966644  TIP3      7368            0.0000000000
     47020      7568  TIP3      H2             32.9725688512       -7.8978065547      -35.9198309891  TIP3      7368            0.0000000000
     47021      7569  TIP3      OH2            27.2461938654      -11.8193439141      -45.7170727810  TIP3      7369            0.0000000000
     47022      7569  TIP3      H1             26.5546532371      -11.2393088053      -46.0912337058  TIP3      7369            0.0000000000
     47023      7569  TIP3      H2             27.9656289063      -11.7486579078      -46.3737613404  TIP3      7369            0.0000000000
     47024      7570  TIP3      OH2            27.3618552850      -13.3542076057      -48.6774121139  TIP3      7370            0.0000000000
     47025      7570  TIP3      H1             28.0796383909      -13.3191316354      -48.0167649782  TIP3      7370            0.0000000000
     47026      7570  TIP3      H2             27.6944254705      -14.0540957747      -49.2683855940  TIP3      7370            0.0000000000
     47027      7571  TIP3      OH2            34.6429860482      -12.4228449294      -37.4368459318  TIP3      7371            0.0000000000
     47028      7571  TIP3      H1             33.9865114943      -11.7007639368      -37.3935378434  TIP3      7371            0.0000000000
     47029      7571  TIP3      H2             35.1446569939      -12.1792510636      -38.2393334641  TIP3      7371            0.0000000000
     47030      7572  TIP3      OH2            30.7019581745      -11.6310032149      -44.7723864437  TIP3      7372            0.0000000000
     47031      7572  TIP3      H1             29.9546173092      -11.3966788313      -44.1714220820  TIP3      7372            0.0000000000
     47032      7572  TIP3      H2             31.1816975598      -12.3095572311      -44.2657268786  TIP3      7372            0.0000000000
     47033      7573  TIP3      OH2            30.6362705416      -13.4769200647      -35.6673786075  TIP3      7373            0.0000000000
     47034      7573  TIP3      H1             30.6441111948      -12.6549877463      -35.1495446991  TIP3      7373            0.0000000000
     47035      7573  TIP3      H2             30.0082711537      -13.1862287940      -36.3614025166  TIP3      7373            0.0000000000
     47036      7574  TIP3      OH2            22.3172183784      -10.9853238159      -42.8765379490  TIP3      7374            0.0000000000
     47037      7574  TIP3      H1             22.0016217823      -11.3632326193      -43.7342715690  TIP3      7374            0.0000000000
     47038      7574  TIP3      H2             22.9344636748      -11.6753814083      -42.5450643522  TIP3      7374            0.0000000000
     47039      7575  TIP3      OH2            23.6481439990       -7.5990800405      -40.2012235143  TIP3      7375            0.0000000000
     47040      7575  TIP3      H1             23.6372108380       -8.1251351531      -41.0092064423  TIP3      7375            0.0000000000
     47041      7575  TIP3      H2             24.4272801810       -7.9587819068      -39.7394552975  TIP3      7375            0.0000000000
     47042      7576  TIP3      OH2            22.6484331162      -12.2351046275      -39.2126577304  TIP3      7376            0.0000000000
     47043      7576  TIP3      H1             23.1966639339      -12.1383793975      -40.0160221346  TIP3      7376            0.0000000000
     47044      7576  TIP3      H2             23.0424426198      -11.5706881209      -38.6047160633  TIP3      7376            0.0000000000
     47045      7577  TIP3      OH2            29.0728333303       -6.6628186117      -38.5028795016  TIP3      7377            0.0000000000
     47046      7577  TIP3      H1             28.7832016394       -6.0276055463      -37.8417924823  TIP3      7377            0.0000000000
     47047      7577  TIP3      H2             28.8114236840       -7.5163181054      -38.0845192792  TIP3      7377            0.0000000000
     47048      7578  TIP3      OH2            23.6017383158       -7.8078917871      -34.5166298259  TIP3      7378            0.0000000000
     47049      7578  TIP3      H1             23.1869969153       -7.0652382140      -34.0311635065  TIP3      7378            0.0000000000
     47050      7578  TIP3      H2             22.9315604491       -8.0027030045      -35.2173077288  TIP3      7378            0.0000000000
     47051      7579  TIP3      OH2            29.5455960353      -12.4309722791      -47.1147957520  TIP3      7379            0.0000000000
     47052      7579  TIP3      H1             30.1238574093      -12.2581431880      -46.3333350048  TIP3      7379            0.0000000000
     47053      7579  TIP3      H2             30.0324080803      -11.9598324148      -47.8351632973  TIP3      7379            0.0000000000
     47054      7580  TIP3      OH2            20.5410988012      -11.6428449346      -35.3695814627  TIP3      7380            0.0000000000
     47055      7580  TIP3      H1             20.5991678014      -10.9823400780      -34.6523203159  TIP3      7380            0.0000000000
     47056      7580  TIP3      H2             19.5982806036      -11.5401683724      -35.5812084341  TIP3      7380            0.0000000000
     47057      7581  TIP3      OH2            27.3095863180       -5.7090172747      -43.6722056773  TIP3      7381            0.0000000000
     47058      7581  TIP3      H1             27.7289949983       -5.4145286871      -42.8539475040  TIP3      7381            0.0000000000
     47059      7581  TIP3      H2             26.7338356742       -4.9679005447      -43.8870623900  TIP3      7381            0.0000000000
     47060      7582  TIP3      OH2            21.8384916416       -5.7771259141      -33.7806840315  TIP3      7382            0.0000000000
     47061      7582  TIP3      H1             21.7682397462       -5.8686736761      -34.7504810889  TIP3      7382            0.0000000000
     47062      7582  TIP3      H2             20.9073902043       -5.9098253752      -33.5178698456  TIP3      7382            0.0000000000
     47063      7583  TIP3      OH2            33.3333031841      -20.7353557971      -47.2692009784  TIP3      7383            0.0000000000
     47064      7583  TIP3      H1             32.3900867584      -20.6276761343      -46.9931301961  TIP3      7383            0.0000000000
     47065      7583  TIP3      H2             33.4971869060      -19.8601262815      -47.6644156137  TIP3      7383            0.0000000000
     47066      7584  TIP3      OH2            21.2817786697      -11.9569193404      -45.2445395151  TIP3      7384            0.0000000000
     47067      7584  TIP3      H1             20.9913780802      -11.1864745842      -45.7708341095  TIP3      7384            0.0000000000
     47068      7584  TIP3      H2             20.6404904116      -12.6313359854      -45.4787996736  TIP3      7384            0.0000000000
     47069      7585  TIP3      OH2            34.3804799972       -6.3286548660      -48.7684990143  TIP3      7385            0.0000000000
     47070      7585  TIP3      H1             34.5358225754       -5.3772624630      -48.6717673044  TIP3      7385            0.0000000000
     47071      7585  TIP3      H2             35.2771059860       -6.7074407484      -48.8488101083  TIP3      7385            0.0000000000
     47072      7586  TIP3      OH2            17.4158723734       -9.5794710527      -36.3280163839  TIP3      7386            0.0000000000
     47073      7586  TIP3      H1             16.9487032776       -9.5554494682      -37.1853963160  TIP3      7386            0.0000000000
     47074      7586  TIP3      H2             17.4510136105      -10.5269146710      -36.1559321926  TIP3      7386            0.0000000000
     47075      7587  TIP3      OH2            17.3938676548       -6.5897872358      -40.2357639272  TIP3      7387            0.0000000000
     47076      7587  TIP3      H1             18.0926843712       -7.0050757160      -39.7125094875  TIP3      7387            0.0000000000
     47077      7587  TIP3      H2             16.9581126048       -6.1733595910      -39.4587372100  TIP3      7387            0.0000000000
     47078      7588  TIP3      OH2            35.3969446393       -6.0795124591      -33.8904981085  TIP3      7388            0.0000000000
     47079      7588  TIP3      H1             35.2763018047       -7.0397356429      -33.9289575484  TIP3      7388            0.0000000000
     47080      7588  TIP3      H2             34.5269776717       -5.8360004505      -33.5075355776  TIP3      7388            0.0000000000
     47081      7589  TIP3      OH2            26.3364790927       -6.5519852844      -35.0340307479  TIP3      7389            0.0000000000
     47082      7589  TIP3      H1             26.3948781404       -5.7092935420      -34.5255549759  TIP3      7389            0.0000000000
     47083      7589  TIP3      H2             25.4635735720       -6.9107850331      -34.7831603547  TIP3      7389            0.0000000000
     47084      7590  TIP3      OH2            26.7546890580       -2.7975314841      -45.2267741824  TIP3      7390            0.0000000000
     47085      7590  TIP3      H1             26.6990885699       -2.8593873424      -46.1897520054  TIP3      7390            0.0000000000
     47086      7590  TIP3      H2             26.8007297438       -1.8398556165      -45.0639330120  TIP3      7390            0.0000000000
     47087      7591  TIP3      OH2            20.4136178318       -3.9212506899      -43.3935834823  TIP3      7391            0.0000000000
     47088      7591  TIP3      H1             20.5685501705       -4.3477944027      -42.5189722275  TIP3      7391            0.0000000000
     47089      7591  TIP3      H2             19.5722535000       -4.3362557118      -43.6439315598  TIP3      7391            0.0000000000
     47090      7592  TIP3      OH2            29.7190836950       -3.5287170345      -48.2078466079  TIP3      7392            0.0000000000
     47091      7592  TIP3      H1             30.2122503490       -4.2656536095      -48.6590944735  TIP3      7392            0.0000000000
     47092      7592  TIP3      H2             29.8642335148       -3.8347631002      -47.2991516399  TIP3      7392            0.0000000000
     47093      7593  TIP3      OH2            29.5163524992       -3.6407344360      -45.4263713802  TIP3      7393            0.0000000000
     47094      7593  TIP3      H1             28.5517457515       -3.5997425138      -45.2867647379  TIP3      7393            0.0000000000
     47095      7593  TIP3      H2             29.7769267906       -4.4000676902      -44.8842866692  TIP3      7393            0.0000000000
     47096      7594  TIP3      OH2            32.5330730278      -14.6235815110      -33.4291982029  TIP3      7394            0.0000000000
     47097      7594  TIP3      H1             32.0515471736      -14.1725564769      -34.1417432537  TIP3      7394            0.0000000000
     47098      7594  TIP3      H2             32.5082593889      -15.5434712169      -33.7323721968  TIP3      7394            0.0000000000
     47099      7595  TIP3      OH2            19.6760029157       -8.2166763624      -35.4163521222  TIP3      7395            0.0000000000
     47100      7595  TIP3      H1             19.8616602790       -8.5797457514      -34.5329506993  TIP3      7395            0.0000000000
     47101      7595  TIP3      H2             18.7873887168       -8.5662046975      -35.6551053271  TIP3      7395            0.0000000000
     47102      7596  TIP3      OH2            22.3481203291      -19.7396496668      -39.4730716139  TIP3      7396            0.0000000000
     47103      7596  TIP3      H1             21.4453162699      -19.8670708494      -39.8392420156  TIP3      7396            0.0000000000
     47104      7596  TIP3      H2             22.2127074387      -18.9098929516      -38.9860955139  TIP3      7396            0.0000000000
     47105      7597  TIP3      OH2            26.9915298600      -20.0756322460      -36.1130369048  TIP3      7397            0.0000000000
     47106      7597  TIP3      H1             27.3833759768      -20.4984467790      -35.3260665046  TIP3      7397            0.0000000000
     47107      7597  TIP3      H2             26.0193884850      -20.1898721508      -35.9656324868  TIP3      7397            0.0000000000
     47108      7598  TIP3      OH2            30.2784335712      -16.2265829180      -35.2100843010  TIP3      7398            0.0000000000
     47109      7598  TIP3      H1             29.7127389128      -16.4420647016      -34.4295278291  TIP3      7398            0.0000000000
     47110      7598  TIP3      H2             30.0932367210      -15.2991983932      -35.4379274463  TIP3      7398            0.0000000000
     47111      7599  TIP3      OH2            31.2686988049      -11.5200519993      -48.9176023550  TIP3      7399            0.0000000000
     47112      7599  TIP3      H1             31.1369102680      -11.6514775887      -49.8710271561  TIP3      7399            0.0000000000
     47113      7599  TIP3      H2             32.0464043090      -10.9399812371      -49.0553112916  TIP3      7399            0.0000000000
     47114      7600  TIP3      OH2            26.6644198053      -17.4736086348      -48.7677306867  TIP3      7400            0.0000000000
     47115      7600  TIP3      H1             26.3143106429      -17.5515252356      -47.8567533083  TIP3      7400            0.0000000000
     47116      7600  TIP3      H2             26.3583335800      -18.3280982716      -49.0993290991  TIP3      7400            0.0000000000
     47117      7601  TIP3      OH2            22.4517831294      -14.7619028726      -38.2073060947  TIP3      7401            0.0000000000
     47118      7601  TIP3      H1             21.7091300101      -14.7740357138      -37.5785545893  TIP3      7401            0.0000000000
     47119      7601  TIP3      H2             22.4009379411      -13.8572991541      -38.5909546051  TIP3      7401            0.0000000000
     47120      7602  TIP3      OH2            22.4090338672      -14.6564804447      -43.3515475186  TIP3      7402            0.0000000000
     47121      7602  TIP3      H1             21.4680558908      -14.8995164501      -43.4867608214  TIP3      7402            0.0000000000
     47122      7602  TIP3      H2             22.7866914972      -14.9393626400      -44.2099343255  TIP3      7402            0.0000000000
     47123      7603  TIP3      OH2            27.9250215369      -14.1462018203      -44.6043662370  TIP3      7403            0.0000000000
     47124      7603  TIP3      H1             27.5445655215      -13.3115858792      -44.9594984641  TIP3      7403            0.0000000000
     47125      7603  TIP3      H2             28.6357771984      -14.3230434743      -45.2486550518  TIP3      7403            0.0000000000
     47126      7604  TIP3      OH2            26.9827595090      -13.9371241492      -33.1485884686  TIP3      7404            0.0000000000
     47127      7604  TIP3      H1             26.4570178879      -14.7139239889      -32.8396664633  TIP3      7404            0.0000000000
     47128      7604  TIP3      H2             27.8205255348      -14.0574567618      -32.6716949101  TIP3      7404            0.0000000000
     47129      7605  TIP3      OH2            28.9691257356      -14.6613911285      -41.7393127626  TIP3      7405            0.0000000000
     47130      7605  TIP3      H1             28.6798070255      -14.0926845807      -42.4734925972  TIP3      7405            0.0000000000
     47131      7605  TIP3      H2             29.0591931015      -15.5067258601      -42.2213614159  TIP3      7405            0.0000000000
     47132      7606  TIP3      OH2            20.0695427048      -14.5190199769      -36.5408457838  TIP3      7406            0.0000000000
     47133      7606  TIP3      H1             20.1540304251      -14.1093745139      -35.6621754065  TIP3      7406            0.0000000000
     47134      7606  TIP3      H2             19.6300885751      -15.3574914055      -36.3281735774  TIP3      7406            0.0000000000
     47135      7607  TIP3      OH2            23.4685265890      -17.1325511514      -49.6707555848  TIP3      7407            0.0000000000
     47136      7607  TIP3      H1             23.0255974895      -17.5370255946      -48.8989580006  TIP3      7407            0.0000000000
     47137      7607  TIP3      H2             22.7533621826      -16.7392595928      -50.1724290393  TIP3      7407            0.0000000000
     47138      7608  TIP3      OH2            16.7296525308      -17.4090273302      -42.5469707357  TIP3      7408            0.0000000000
     47139      7608  TIP3      H1             17.4140586910      -17.4480443341      -41.8487207431  TIP3      7408            0.0000000000
     47140      7608  TIP3      H2             17.1772335300      -17.7812569610      -43.3302147196  TIP3      7408            0.0000000000
     47141      7609  TIP3      OH2            18.0110400693      -16.6891707358      -47.1772283826  TIP3      7409            0.0000000000
     47142      7609  TIP3      H1             18.5062978737      -16.0755411957      -47.7533775215  TIP3      7409            0.0000000000
     47143      7609  TIP3      H2             17.3236826613      -16.0601088723      -46.8758330708  TIP3      7409            0.0000000000
     47144      7610  TIP3      OH2            28.1587658157      -13.0742357584      -37.1873767388  TIP3      7410            0.0000000000
     47145      7610  TIP3      H1             28.5411634313      -13.7609552917      -37.7706050909  TIP3      7410            0.0000000000
     47146      7610  TIP3      H2             27.6921160443      -13.6010574659      -36.5142425997  TIP3      7410            0.0000000000
     47147      7611  TIP3      OH2            24.9675858933      -17.0911351960      -42.3511832106  TIP3      7411            0.0000000000
     47148      7611  TIP3      H1             24.0349519012      -17.0918431994      -42.0613901234  TIP3      7411            0.0000000000
     47149      7611  TIP3      H2             25.4471769249      -17.2674963917      -41.5272228107  TIP3      7411            0.0000000000
     47150      7612  TIP3      OH2            19.7711502112      -15.5463632358      -43.4793184544  TIP3      7412            0.0000000000
     47151      7612  TIP3      H1             18.8886619876      -15.3884620122      -43.8726924453  TIP3      7412            0.0000000000
     47152      7612  TIP3      H2             20.0557322193      -16.3792926677      -43.8908892493  TIP3      7412            0.0000000000
     47153      7613  TIP3      OH2            23.4198083991      -15.4930854011      -45.8372859869  TIP3      7413            0.0000000000
     47154      7613  TIP3      H1             24.3771698044      -15.3968689536      -45.6721846711  TIP3      7413            0.0000000000
     47155      7613  TIP3      H2             23.1871142770      -14.8299824195      -46.5168782952  TIP3      7413            0.0000000000
     47156      7614  TIP3      OH2            29.3664288670      -17.8583920375      -39.1109009065  TIP3      7414            0.0000000000
     47157      7614  TIP3      H1             28.6799100906      -17.8121864848      -38.4050594937  TIP3      7414            0.0000000000
     47158      7614  TIP3      H2             28.8597669087      -18.1160702674      -39.8932330654  TIP3      7414            0.0000000000
     47159      7615  TIP3      OH2            22.1441022804      -14.3036966445      -48.2443830523  TIP3      7415            0.0000000000
     47160      7615  TIP3      H1             21.5492348211      -14.6596163384      -48.9071409078  TIP3      7415            0.0000000000
     47161      7615  TIP3      H2             22.9522813276      -14.1010827403      -48.7392979393  TIP3      7415            0.0000000000
     47162      7616  TIP3      OH2            32.5669607101       -2.2172594054      -32.7840070409  TIP3      7416            0.0000000000
     47163      7616  TIP3      H1             32.8345231847       -1.8353827588      -33.6381148517  TIP3      7416            0.0000000000
     47164      7616  TIP3      H2             33.2914089407       -1.8995263722      -32.2250328922  TIP3      7416            0.0000000000
     47165      7617  TIP3      OH2            20.2450571887       -9.7538506575      -33.2091736272  TIP3      7417            0.0000000000
     47166      7617  TIP3      H1             20.9658580412       -9.4977870747      -32.6119470436  TIP3      7417            0.0000000000
     47167      7617  TIP3      H2             19.4731771305       -9.6725680842      -32.6081016488  TIP3      7417            0.0000000000
     47168      7618  TIP3      OH2            26.2443370132      -14.3386526465      -40.4567219093  TIP3      7418            0.0000000000
     47169      7618  TIP3      H1             26.8459840849      -14.8713297771      -40.9903885424  TIP3      7418            0.0000000000
     47170      7618  TIP3      H2             26.0995894034      -14.8887862852      -39.6749457379  TIP3      7418            0.0000000000
     47171      7619  TIP3      OH2            21.2543305873      -18.1970189902      -44.0177869340  TIP3      7419            0.0000000000
     47172      7619  TIP3      H1             20.9444025053      -19.1214363756      -44.0349430369  TIP3      7419            0.0000000000
     47173      7619  TIP3      H2             22.0485386398      -18.2619336180      -44.5608311259  TIP3      7419            0.0000000000
     47174      7620  TIP3      OH2            24.8845405551      -16.0155883203      -38.0422787090  TIP3      7420            0.0000000000
     47175      7620  TIP3      H1             24.0599743000      -15.4930599233      -37.9545476727  TIP3      7420            0.0000000000
     47176      7620  TIP3      H2             25.4396560612      -15.6592454324      -37.3212166703  TIP3      7420            0.0000000000
     47177      7621  TIP3      OH2            25.4826250103       -9.7941394263      -46.3334860788  TIP3      7421            0.0000000000
     47178      7621  TIP3      H1             24.6778992151      -10.2490895649      -46.6607999330  TIP3      7421            0.0000000000
     47179      7621  TIP3      H2             25.2583534174       -9.6578474583      -45.3902025094  TIP3      7421            0.0000000000
     47180      7622  TIP3      OH2            32.6700858395      -10.5850579135      -37.5407973583  TIP3      7422            0.0000000000
     47181      7622  TIP3      H1             33.2229892202      -10.0998282431      -38.1778002200  TIP3      7422            0.0000000000
     47182      7622  TIP3      H2             31.8059497385      -10.5434393731      -37.9996928315  TIP3      7422            0.0000000000
     47183      7623  TIP3      OH2            29.2579693129      -16.9502412392      -47.9981135547  TIP3      7423            0.0000000000
     47184      7623  TIP3      H1             28.3440284453      -16.7956681844      -48.2769626521  TIP3      7423            0.0000000000
     47185      7623  TIP3      H2             29.6106280229      -16.0528617240      -47.8348210521  TIP3      7423            0.0000000000
     47186      7624  TIP3      OH2            26.9656680335       -9.5158768594      -35.0993721453  TIP3      7424            0.0000000000
     47187      7624  TIP3      H1             26.6109790726       -9.9476094476      -34.3152957653  TIP3      7424            0.0000000000
     47188      7624  TIP3      H2             26.7074600834       -8.5952127662      -34.9921282354  TIP3      7424            0.0000000000
     47189      7625  TIP3      OH2            30.0302795198      -15.0079983790      -46.4857240006  TIP3      7425            0.0000000000
     47190      7625  TIP3      H1             30.9212893752      -15.1931577014      -46.1170383431  TIP3      7425            0.0000000000
     47191      7625  TIP3      H2             30.1463702211      -14.2233395624      -47.0420244171  TIP3      7425            0.0000000000
     47192      7626  TIP3      OH2            20.5804097094      -10.3931385803      -40.5408500167  TIP3      7426            0.0000000000
     47193      7626  TIP3      H1             21.2621027945      -10.4734530663      -41.2371748371  TIP3      7426            0.0000000000
     47194      7626  TIP3      H2             20.6431055172      -11.2535542701      -40.0894373474  TIP3      7426            0.0000000000
     47195      7627  TIP3      OH2            27.6143507232       -8.3157652477      -47.2948348154  TIP3      7427            0.0000000000
     47196      7627  TIP3      H1             27.2411131741       -7.4768464886      -46.9586812762  TIP3      7427            0.0000000000
     47197      7627  TIP3      H2             26.8590075334       -8.9184214422      -47.1221955779  TIP3      7427            0.0000000000
     47198      7628  TIP3      OH2            17.5797892947      -12.0250189370      -35.2793734800  TIP3      7428            0.0000000000
     47199      7628  TIP3      H1             17.7406657610      -12.4542782433      -34.4191489558  TIP3      7428            0.0000000000
     47200      7628  TIP3      H2             16.9476171468      -12.6177768207      -35.7194175173  TIP3      7428            0.0000000000
     47201      7629  TIP3      OH2            24.5848248791      -12.4287137110      -33.1101296865  TIP3      7429            0.0000000000
     47202      7629  TIP3      H1             24.2644491933      -12.7423596588      -33.9681268877  TIP3      7429            0.0000000000
     47203      7629  TIP3      H2             25.5065125918      -12.7561781849      -33.1095433482  TIP3      7429            0.0000000000
     47204      7630  TIP3      OH2            29.2729633462       -7.0949146960      -35.1498587508  TIP3      7430            0.0000000000
     47205      7630  TIP3      H1             28.3478357441       -6.9172945666      -35.3847972203  TIP3      7430            0.0000000000
     47206      7630  TIP3      H2             29.2378173106       -6.8026516800      -34.2186294748  TIP3      7430            0.0000000000
     47207      7631  TIP3      OH2            34.9643695757      -14.9139033009      -46.7165902102  TIP3      7431            0.0000000000
     47208      7631  TIP3      H1             34.3942857088      -15.1914231337      -47.4680038557  TIP3      7431            0.0000000000
     47209      7631  TIP3      H2             35.0209352722      -13.9744366973      -46.9935102335  TIP3      7431            0.0000000000
     47210      7632  TIP3      OH2            34.9144496465       -9.0819923763      -33.9359265174  TIP3      7432            0.0000000000
     47211      7632  TIP3      H1             34.0292523406       -8.8496714916      -34.3086443022  TIP3      7432            0.0000000000
     47212      7632  TIP3      H2             35.4648681839       -9.0942918792      -34.7509486554  TIP3      7432            0.0000000000
     47213      7633  TIP3      OH2            33.2915446615       -6.1211492884      -46.3453175684  TIP3      7433            0.0000000000
     47214      7633  TIP3      H1             32.8507435112       -6.9242147865      -46.0526823015  TIP3      7433            0.0000000000
     47215      7633  TIP3      H2             33.5252495659       -6.3208370734      -47.2749911215  TIP3      7433            0.0000000000
     47216      7634  TIP3      OH2            30.4446387093      -11.2704635810      -39.2626454428  TIP3      7434            0.0000000000
     47217      7634  TIP3      H1             29.5007163550      -11.4789925001      -39.3730074436  TIP3      7434            0.0000000000
     47218      7634  TIP3      H2             30.8702527298      -12.0308442087      -39.6987356995  TIP3      7434            0.0000000000
     47219      7635  TIP3      OH2            22.9432613938       -6.9445543069      -43.1526711091  TIP3      7435            0.0000000000
     47220      7635  TIP3      H1             23.4459264126       -6.1363268664      -43.3618320595  TIP3      7435            0.0000000000
     47221      7635  TIP3      H2             22.0623276973       -6.7066161563      -43.4703788915  TIP3      7435            0.0000000000
     47222      7636  TIP3      OH2            18.7769155303      -12.1447074368      -48.5607128666  TIP3      7436            0.0000000000
     47223      7636  TIP3      H1             19.3195457775      -11.4404555053      -48.1652726762  TIP3      7436            0.0000000000
     47224      7636  TIP3      H2             17.8726557567      -11.8255903488      -48.3407155209  TIP3      7436            0.0000000000
     47225      7637  TIP3      OH2            24.3726159471       -9.2781439751      -43.6385238614  TIP3      7437            0.0000000000
     47226      7637  TIP3      H1             24.0539468194       -8.3570184079      -43.5577430645  TIP3      7437            0.0000000000
     47227      7637  TIP3      H2             23.6529125609       -9.7686163781      -43.1946280540  TIP3      7437            0.0000000000
     47228      7638  TIP3      OH2            24.8299600446       -5.0894920403      -37.2312834048  TIP3      7438            0.0000000000
     47229      7638  TIP3      H1             25.2853650109       -4.2827389979      -37.5159692129  TIP3      7438            0.0000000000
     47230      7638  TIP3      H2             25.4413000104       -5.4311332646      -36.5552353396  TIP3      7438            0.0000000000
     47231      7639  TIP3      OH2            23.0559366557       -4.2926368725      -44.0634007659  TIP3      7439            0.0000000000
     47232      7639  TIP3      H1             22.0872492961       -4.1547832446      -43.9610648208  TIP3      7439            0.0000000000
     47233      7639  TIP3      H2             23.4140902233       -3.4431220324      -43.7525049287  TIP3      7439            0.0000000000
     47234      7640  TIP3      OH2            28.3371693239       -9.0981726715      -37.6158941137  TIP3      7440            0.0000000000
     47235      7640  TIP3      H1             28.0205781762       -9.2859677996      -36.7075900295  TIP3      7440            0.0000000000
     47236      7640  TIP3      H2             28.9830655349       -9.8036747375      -37.7811388072  TIP3      7440            0.0000000000
     47237      7641  TIP3      OH2            30.5989885645       -8.0544475889      -48.4265409439  TIP3      7441            0.0000000000
     47238      7641  TIP3      H1             30.9487908773       -8.5504772657      -47.6677237030  TIP3      7441            0.0000000000
     47239      7641  TIP3      H2             29.6576937715       -8.2490319310      -48.3453245544  TIP3      7441            0.0000000000
     47240      7642  TIP3      OH2            31.1654080855       -4.5113016319      -35.1274010550  TIP3      7442            0.0000000000
     47241      7642  TIP3      H1             30.4709497664       -5.0040295084      -35.6042539199  TIP3      7442            0.0000000000
     47242      7642  TIP3      H2             31.3458679593       -3.8101694149      -35.7882608257  TIP3      7442            0.0000000000
     47243      7643  TIP3      OH2            35.2100689917       -3.6182744052      -48.2532252678  TIP3      7443            0.0000000000
     47244      7643  TIP3      H1             35.8339748367       -2.9311924811      -48.5161867831  TIP3      7443            0.0000000000
     47245      7643  TIP3      H2             34.4372331251       -3.0524751520      -47.9930718657  TIP3      7443            0.0000000000
     47246      7644  TIP3      OH2            19.2231349777      -17.2564695697      -35.7359646921  TIP3      7444            0.0000000000
     47247      7644  TIP3      H1             18.3162567502      -16.9046713638      -35.7547350517  TIP3      7444            0.0000000000
     47248      7644  TIP3      H2             19.1115055959      -18.1018934301      -35.2723876347  TIP3      7444            0.0000000000
     47249      7645  TIP3      OH2            31.4683398086       -9.3734577756      -46.2741099256  TIP3      7445            0.0000000000
     47250      7645  TIP3      H1             31.2297254673      -10.1876425327      -45.7914872548  TIP3      7445            0.0000000000
     47251      7645  TIP3      H2             32.4213369798       -9.3394776513      -46.1051600637  TIP3      7445            0.0000000000
     47252      7646  TIP3      OH2            19.3536288634       -5.3069594225      -37.2639519530  TIP3      7446            0.0000000000
     47253      7646  TIP3      H1             19.0493633637       -6.2288572410      -37.3544885540  TIP3      7446            0.0000000000
     47254      7646  TIP3      H2             19.0571100296       -5.1655764646      -36.3661968577  TIP3      7446            0.0000000000
     47255      7647  TIP3      OH2            23.6028965865       -7.3831692516      -47.5971198345  TIP3      7447            0.0000000000
     47256      7647  TIP3      H1             23.8485701338       -7.9394831468      -46.8467214718  TIP3      7447            0.0000000000
     47257      7647  TIP3      H2             23.6477379600       -6.4766914717      -47.2289669186  TIP3      7447            0.0000000000
     47258      7648  TIP3      OH2            20.0889972786      -10.1856505787      -47.1241654393  TIP3      7448            0.0000000000
     47259      7648  TIP3      H1             19.4076696061       -9.7746945958      -46.5579579136  TIP3      7448            0.0000000000
     47260      7648  TIP3      H2             20.6314749691       -9.4096906625      -47.3542445757  TIP3      7448            0.0000000000
     47261      7649  TIP3      OH2            27.9550833412      -17.4831922837      -36.7673314198  TIP3      7449            0.0000000000
     47262      7649  TIP3      H1             28.6723888960      -17.4237112281      -36.1271318032  TIP3      7449            0.0000000000
     47263      7649  TIP3      H2             27.5721816742      -18.3598739304      -36.5643869521  TIP3      7449            0.0000000000
     47264      7650  TIP3      OH2            28.6760570407      -17.9185001134      -45.6389647779  TIP3      7450            0.0000000000
     47265      7650  TIP3      H1             28.9235207154      -17.4633440975      -46.4736068641  TIP3      7450            0.0000000000
     47266      7650  TIP3      H2             29.2817251459      -17.4736529767      -45.0389429977  TIP3      7450            0.0000000000
     47267      7651  TIP3      OH2            26.3947263391       -5.7545960599      -46.8994901544  TIP3      7451            0.0000000000
     47268      7651  TIP3      H1             25.5723990858       -5.2475530589      -46.7917658634  TIP3      7451            0.0000000000
     47269      7651  TIP3      H2             26.9149422016       -5.1979056313      -47.4861996507  TIP3      7451            0.0000000000
     47270      7652  TIP3      OH2            25.9376179991      -16.1701804314      -44.8625610184  TIP3      7452            0.0000000000
     47271      7652  TIP3      H1             26.7119258023      -15.5740813283      -44.8305606122  TIP3      7452            0.0000000000
     47272      7652  TIP3      H2             25.6699814539      -16.2831579581      -43.9313407772  TIP3      7452            0.0000000000
     47273      7653  TIP3      OH2            26.4785895602      -15.1403968158      -35.6726114807  TIP3      7453            0.0000000000
     47274      7653  TIP3      H1             26.5568641359      -14.5807014615      -34.8747378871  TIP3      7453            0.0000000000
     47275      7653  TIP3      H2             27.1458739900      -15.8323838857      -35.5786263028  TIP3      7453            0.0000000000
     47276      7654  TIP3      OH2            26.7795274688      -19.1127581586      -43.9852533572  TIP3      7454            0.0000000000
     47277      7654  TIP3      H1             26.4596549384      -18.4645609315      -43.3366636729  TIP3      7454            0.0000000000
     47278      7654  TIP3      H2             27.4729963543      -18.5617348764      -44.4286126148  TIP3      7454            0.0000000000
     47279      7655  TIP3      OH2            23.7425536552       -4.6862823500      -46.8159229879  TIP3      7455            0.0000000000
     47280      7655  TIP3      H1             23.9437561901       -3.8683163595      -47.3207604967  TIP3      7455            0.0000000000
     47281      7655  TIP3      H2             23.4984176696       -4.3454953515      -45.9350845245  TIP3      7455            0.0000000000
     47282      7656  TIP3      OH2            22.4369240538      -17.9775359173      -47.2199290554  TIP3      7456            0.0000000000
     47283      7656  TIP3      H1             22.3942709489      -17.0838929408      -46.8362619387  TIP3      7456            0.0000000000
     47284      7656  TIP3      H2             23.3424254376      -18.2407995213      -46.9787621476  TIP3      7456            0.0000000000
     47285      7657  TIP3      OH2            32.6598275262      -17.2731304816      -34.8299304810  TIP3      7457            0.0000000000
     47286      7657  TIP3      H1             31.7336002405      -16.9528166809      -34.9573770203  TIP3      7457            0.0000000000
     47287      7657  TIP3      H2             32.9606241052      -17.2827930521      -35.7537018777  TIP3      7457            0.0000000000
     47288      7658  TIP3      OH2            31.2797738773      -13.4805414438      -40.8181872295  TIP3      7458            0.0000000000
     47289      7658  TIP3      H1             30.4555488289      -13.9275222089      -41.0960358980  TIP3      7458            0.0000000000
     47290      7658  TIP3      H2             31.7562642766      -14.1687721199      -40.3054732421  TIP3      7458            0.0000000000
     47291      7659  TIP3      OH2            20.7098661455       -7.5889417404      -48.1418073491  TIP3      7459            0.0000000000
     47292      7659  TIP3      H1             21.3533676741       -6.9165201721      -47.8948690240  TIP3      7459            0.0000000000
     47293      7659  TIP3      H2             21.1446407839       -7.9944987334      -48.9198571069  TIP3      7459            0.0000000000
     47294      7660  TIP3      OH2            19.0412576969      -14.8808414885      -48.9573611051  TIP3      7460            0.0000000000
     47295      7660  TIP3      H1             19.0315768217      -13.9111083446      -48.8663399782  TIP3      7460            0.0000000000
     47296      7660  TIP3      H2             18.2045750048      -15.0805561055      -49.4158605522  TIP3      7460            0.0000000000
     47297      7661  TIP3      OH2            32.3290249797       -4.2054698208      -39.1449708809  TIP3      7461            0.0000000000
     47298      7661  TIP3      H1             32.2495140252       -3.5360273029      -39.8514461908  TIP3      7461            0.0000000000
     47299      7661  TIP3      H2             33.2947638222       -4.1709329214      -38.9811426009  TIP3      7461            0.0000000000
     47300      7662  TIP3      OH2            19.8306760256      -20.0997617092      -40.3406342716  TIP3      7462            0.0000000000
     47301      7662  TIP3      H1             19.6365441542      -20.0823629057      -41.3038552051  TIP3      7462            0.0000000000
     47302      7662  TIP3      H2             19.4149984480      -20.9514184337      -40.0889195037  TIP3      7462            0.0000000000
     47303      7663  TIP3      OH2            18.7893301731       -6.1832001912      -44.2100126906  TIP3      7463            0.0000000000
     47304      7663  TIP3      H1             17.9326567485       -5.7357419524      -44.2342615372  TIP3      7463            0.0000000000
     47305      7663  TIP3      H2             19.2710752788       -5.7118684536      -44.8977480669  TIP3      7463            0.0000000000
     47306      7664  TIP3      OH2            17.9819610466       -3.5126781542      -32.8979269594  TIP3      7464            0.0000000000
     47307      7664  TIP3      H1             18.5980420853       -3.7303096776      -32.1692090429  TIP3      7464            0.0000000000
     47308      7664  TIP3      H2             17.5963040744       -4.3867297203      -33.1140329746  TIP3      7464            0.0000000000
     47309      7665  TIP3      OH2            22.6729613485       -4.6124386643      -31.3086285123  TIP3      7465            0.0000000000
     47310      7665  TIP3      H1             23.4291276542       -5.1089952293      -30.9739478248  TIP3      7465            0.0000000000
     47311      7665  TIP3      H2             22.6454713777       -4.8885205684      -32.2451744491  TIP3      7465            0.0000000000
     47312      7666  TIP3      OH2            26.6997698882       -5.1798070586      -50.0448499969  TIP3      7466            0.0000000000
     47313      7666  TIP3      H1             26.1349737289       -5.8115025838      -49.5905443101  TIP3      7466            0.0000000000
     47314      7666  TIP3      H2             27.5311733460       -5.6732556579      -50.1058889760  TIP3      7466            0.0000000000
     47315      7667  TIP3      OH2            29.1729247108       -6.2237453036      -32.5568988477  TIP3      7467            0.0000000000
     47316      7667  TIP3      H1             28.8580607377       -7.1109234617      -32.2818849100  TIP3      7467            0.0000000000
     47317      7667  TIP3      H2             29.9424868663       -6.1050362509      -31.9653455005  TIP3      7467            0.0000000000
     47318      7668  TIP3      OH2            30.9670929931       -5.4607636618      -49.3051716002  TIP3      7468            0.0000000000
     47319      7668  TIP3      H1             31.5222506942       -6.1884239011      -48.9785271820  TIP3      7468            0.0000000000
     47320      7668  TIP3      H2             31.6094996332       -5.0160095276      -49.9301971927  TIP3      7468            0.0000000000
     47321      7669  TIP3      OH2            17.8928147205       -9.7513352218      -31.9231576199  TIP3      7469            0.0000000000
     47322      7669  TIP3      H1             18.0632270507      -10.6642730479      -32.2191104975  TIP3      7469            0.0000000000
     47323      7669  TIP3      H2             17.1642000440       -9.4904564575      -32.5144188630  TIP3      7469            0.0000000000
     47324      7670  TIP3      OH2            22.3396176888       -9.4461074742      -49.8199074385  TIP3      7470            0.0000000000
     47325      7670  TIP3      H1             22.3871023435      -10.2147806893      -49.2296484574  TIP3      7470            0.0000000000
     47326      7670  TIP3      H2             23.0188683617       -9.6129043122      -50.4735408342  TIP3      7470            0.0000000000
     47327      7671  TIP3      OH2            24.6152008019       -9.7666444368      -32.5357919324  TIP3      7471            0.0000000000
     47328      7671  TIP3      H1             24.2741203062       -9.4525362637      -33.3979761731  TIP3      7471            0.0000000000
     47329      7671  TIP3      H2             24.6894623793      -10.7432208501      -32.6436379005  TIP3      7471            0.0000000000
     47330      7672  TIP3      OH2            30.3090836155       -9.9076039851      -35.1402127937  TIP3      7472            0.0000000000
     47331      7672  TIP3      H1             31.1011224276       -9.3258776173      -35.2019697629  TIP3      7472            0.0000000000
     47332      7672  TIP3      H2             29.6136307872       -9.2381792754      -35.1060913293  TIP3      7472            0.0000000000
     47333      7673  TIP3      OH2            18.8234434384      -12.5295858253      -32.5385117621  TIP3      7473            0.0000000000
     47334      7673  TIP3      H1             19.2401123021      -13.3926092891      -32.6292071552  TIP3      7473            0.0000000000
     47335      7673  TIP3      H2             18.5896131914      -12.5247677970      -31.5974785098  TIP3      7473            0.0000000000
     47336      7674  TIP3      OH2            23.4293520624      -11.4130853268      -47.4946699447  TIP3      7474            0.0000000000
     47337      7674  TIP3      H1             22.9554001078      -11.9130744392      -46.8079011484  TIP3      7474            0.0000000000
     47338      7674  TIP3      H2             23.7788139006      -12.1307573853      -48.0679750961  TIP3      7474            0.0000000000
     47339      7675  TIP3      OH2            22.7192898636      -13.5859622813      -35.1859718259  TIP3      7475            0.0000000000
     47340      7675  TIP3      H1             22.1233415179      -12.8642537760      -34.9293934876  TIP3      7475            0.0000000000
     47341      7675  TIP3      H2             23.1180533711      -13.2168380788      -35.9928997783  TIP3      7475            0.0000000000
     47342      7676  TIP3      OH2            24.6305824466      -13.1775122021      -49.1624079337  TIP3      7476            0.0000000000
     47343      7676  TIP3      H1             24.3968438611      -13.3079706132      -50.0983204988  TIP3      7476            0.0000000000
     47344      7676  TIP3      H2             25.6048755448      -13.1042916734      -49.1398467118  TIP3      7476            0.0000000000
     47345      7677  TIP3      OH2            27.7947060927      -11.0144362382      -31.8454391445  TIP3      7477            0.0000000000
     47346      7677  TIP3      H1             28.7506031148      -11.0298121035      -31.9741425762  TIP3      7477            0.0000000000
     47347      7677  TIP3      H2             27.6223327594      -11.7831218656      -31.2785444887  TIP3      7477            0.0000000000
     47348      7678  TIP3      OH2            33.6349771007      -11.1162873817       50.2263489326  TIP3      7478            0.0000000000
     47349      7678  TIP3      H1             33.6929202548      -11.3486597848       49.3045721529  TIP3      7478            0.0000000000
     47350      7678  TIP3      H2             33.8564737678      -10.1534604549       50.1250965208  TIP3      7478            0.0000000000
     47351      7679  TIP3      OH2            23.1262208200      -16.2073098739      -34.1295705401  TIP3      7479            0.0000000000
     47352      7679  TIP3      H1             23.2429937707      -16.9158607620      -34.7893006233  TIP3      7479            0.0000000000
     47353      7679  TIP3      H2             23.0815031861      -15.3958243363      -34.6779558768  TIP3      7479            0.0000000000
     47354      7680  TIP3      OH2            23.5305918213      -17.8248928917      -36.5725438742  TIP3      7480            0.0000000000
     47355      7680  TIP3      H1             24.0385149793      -17.3588648289      -37.2791473647  TIP3      7480            0.0000000000
     47356      7680  TIP3      H2             22.6362532904      -17.9002451064      -36.9772974963  TIP3      7480            0.0000000000
     47357      7681  TIP3      OH2            25.0685673930      -12.3327872054      -36.3320670722  TIP3      7481            0.0000000000
     47358      7681  TIP3      H1             25.8226876657      -12.4996552771      -36.9027910369  TIP3      7481            0.0000000000
     47359      7681  TIP3      H2             24.7023304652      -11.5000745283      -36.6690711565  TIP3      7481            0.0000000000
     47360      7682  TIP3      OH2            29.4625150899      -14.5872636213      -31.3587303337  TIP3      7482            0.0000000000
     47361      7682  TIP3      H1             29.7114656307      -15.5143316176      -31.4700685338  TIP3      7482            0.0000000000
     47362      7682  TIP3      H2             30.3225661867      -14.1373317312      -31.3587090501  TIP3      7482            0.0000000000
     47363      7683  TIP3      OH2            30.7964540671      -11.7832777633      -33.1943487721  TIP3      7483            0.0000000000
     47364      7683  TIP3      H1             30.5496754669      -11.0677719864      -33.8195887642  TIP3      7483            0.0000000000
     47365      7683  TIP3      H2             31.7552125189      -11.8204413407      -33.3886795145  TIP3      7483            0.0000000000
     47366      7684  TIP3      OH2            21.5880700732      -14.9560548147      -32.2077726858  TIP3      7484            0.0000000000
     47367      7684  TIP3      H1             20.8186177642      -15.5338998328      -32.3748142040  TIP3      7484            0.0000000000
     47368      7684  TIP3      H2             22.2418575283      -15.3258455026      -32.8289997086  TIP3      7484            0.0000000000
     47369      7685  TIP3      OH2            24.3194896755      -20.3885315434      -36.1873649018  TIP3      7485            0.0000000000
     47370      7685  TIP3      H1             24.1336266776      -19.4265766242      -36.2818332370  TIP3      7485            0.0000000000
     47371      7685  TIP3      H2             23.5702004324      -20.7564865393      -36.6869897348  TIP3      7485            0.0000000000
     47372      7686  TIP3      OH2            25.5890683974      -16.0593028890      -32.5566068902  TIP3      7486            0.0000000000
     47373      7686  TIP3      H1             25.2735027075      -16.2918721415      -31.6615515440  TIP3      7486            0.0000000000
     47374      7686  TIP3      H2             24.8078277130      -16.2622384345      -33.0982997085  TIP3      7486            0.0000000000
     47375      7687  TIP3      OH2            28.3109614569      -16.9131375659      -33.4634366285  TIP3      7487            0.0000000000
     47376      7687  TIP3      H1             27.3455419652      -16.8608162878      -33.3568688357  TIP3      7487            0.0000000000
     47377      7687  TIP3      H2             28.5735326980      -17.5557559325      -32.7760959088  TIP3      7487            0.0000000000
     47378      7688  TIP3      OH2            29.8918570050      -18.2963038154      -31.5686769717  TIP3      7488            0.0000000000
     47379      7688  TIP3      H1             29.8441619021      -19.2746133442      -31.5369071301  TIP3      7488            0.0000000000
     47380      7688  TIP3      H2             29.6436135716      -18.0042553161      -30.6689755689  TIP3      7488            0.0000000000
     47381      7689  TIP3      OH2            19.6607555685      -17.0181591480      -32.4506506079  TIP3      7489            0.0000000000
     47382      7689  TIP3      H1             19.9125459872      -17.7537451466      -33.0361583581  TIP3      7489            0.0000000000
     47383      7689  TIP3      H2             19.5753668413      -17.4661129739      -31.5861991415  TIP3      7489            0.0000000000
     47384      7690  TIP3      OH2            24.5333044763      -20.9933015768      -33.4847288855  TIP3      7490            0.0000000000
     47385      7690  TIP3      H1             25.2118962561      -21.6976965723      -33.5010559822  TIP3      7490            0.0000000000
     47386      7690  TIP3      H2             24.4175630209      -20.8541247421      -34.4454136321  TIP3      7490            0.0000000000
     47387      7691  TIP3      OH2            24.8950580263      -19.3819195939      -31.3669218983  TIP3      7491            0.0000000000
     47388      7691  TIP3      H1             24.7212073314      -19.8877386617      -32.1993947518  TIP3      7491            0.0000000000
     47389      7691  TIP3      H2             24.2959076764      -18.6169092929      -31.4677245633  TIP3      7491            0.0000000000
     47390      7692  TIP3      OH2            24.3711647893       -2.4920501081      -48.2402046304  TIP3      7492            0.0000000000
     47391      7692  TIP3      H1             25.3373375840       -2.3714816315      -48.1328696601  TIP3      7492            0.0000000000
     47392      7692  TIP3      H2             24.1668636962       -1.8173451867      -48.8966799392  TIP3      7492            0.0000000000
     47393      7693  TIP3      OH2            18.0026994934       -7.9020748559      -48.6347818741  TIP3      7493            0.0000000000
     47394      7693  TIP3      H1             18.9706571773       -7.7929259739      -48.4962804221  TIP3      7493            0.0000000000
     47395      7693  TIP3      H2             17.9879796271       -8.5019540481      -49.3962709009  TIP3      7493            0.0000000000
     47396      7694  TIP3      OH2            16.6989876430       -2.5063602904      -43.7650414298  TIP3      7494            0.0000000000
     47397      7694  TIP3      H1             15.9803734508       -3.0026817437      -44.2189312534  TIP3      7494            0.0000000000
     47398      7694  TIP3      H2             16.9723809563       -3.1548617590      -43.0875453087  TIP3      7494            0.0000000000
     47399      7695  TIP3      OH2            17.5044109773       -4.3561239171      -41.8998752721  TIP3      7495            0.0000000000
     47400      7695  TIP3      H1             17.1999263191       -5.2587012947      -41.6643060022  TIP3      7495            0.0000000000
     47401      7695  TIP3      H2             17.7556460319       -4.0514362439      -41.0129672327  TIP3      7495            0.0000000000
     47402      7696  TIP3      OH2            35.0733027016       -3.5892297801      -38.9727178719  TIP3      7496            0.0000000000
     47403      7696  TIP3      H1             35.0625317833       -3.4365106886      -38.0113956857  TIP3      7496            0.0000000000
     47404      7696  TIP3      H2             35.7695983475       -2.9816801780      -39.2311524757  TIP3      7496            0.0000000000
     47405      7697  TIP3      OH2            34.6284774641       -3.9795394054      -36.0035623390  TIP3      7497            0.0000000000
     47406      7697  TIP3      H1             34.1590426760       -4.7497658976      -36.3899452301  TIP3      7497            0.0000000000
     47407      7697  TIP3      H2             35.1346422129       -4.4350025615      -35.3067899711  TIP3      7497            0.0000000000
     47408      7698  TIP3      OH2            33.0734896207       -8.2615582735      -31.3327912921  TIP3      7498            0.0000000000
     47409      7698  TIP3      H1             32.1692829080       -8.2895348293      -30.9656190664  TIP3      7498            0.0000000000
     47410      7698  TIP3      H2             33.4472480677       -7.4560136804      -30.9255712347  TIP3      7498            0.0000000000
     47411      7699  TIP3      OH2            34.3416348108       -9.9138559846      -45.8685679018  TIP3      7499            0.0000000000
     47412      7699  TIP3      H1             35.2223048171       -9.5373654211      -45.7156659645  TIP3      7499            0.0000000000
     47413      7699  TIP3      H2             34.3713847195      -10.6599663060      -45.2318687021  TIP3      7499            0.0000000000
     47414      7700  TIP3      OH2            34.7618556911      -11.8599079889      -44.0269088062  TIP3      7500            0.0000000000
     47415      7700  TIP3      H1             34.0107447500      -12.3653527438      -43.6442246132  TIP3      7500            0.0000000000
     47416      7700  TIP3      H2             35.3513116803      -11.7348032284      -43.2575055809  TIP3      7500            0.0000000000
     47417      7701  TIP3      OH2            34.5472138777       -9.1615489914      -39.0265530211  TIP3      7501            0.0000000000
     47418      7701  TIP3      H1             35.3639914507       -9.5372106400      -39.4047188407  TIP3      7501            0.0000000000
     47419      7701  TIP3      H2             34.6582317753       -8.2075318236      -39.2160845058  TIP3      7501            0.0000000000
     47420      7702  TIP3      OH2            33.0645426920       -6.2578926683      -36.7654497206  TIP3      7502            0.0000000000
     47421      7702  TIP3      H1             32.3780902470       -5.9125527775      -36.1768245547  TIP3      7502            0.0000000000
     47422      7702  TIP3      H2             32.5164136812       -6.6571837482      -37.4710970967  TIP3      7502            0.0000000000
     47423      7703  TIP3      OH2            35.0781657802      -11.9911584090      -47.6284420794  TIP3      7503            0.0000000000
     47424      7703  TIP3      H1             34.4902448289      -11.6818433459      -48.3497053618  TIP3      7503            0.0000000000
     47425      7703  TIP3      H2             34.9699145986      -11.2832498011      -46.9658239425  TIP3      7503            0.0000000000
     47426      7704  TIP3      OH2            33.3846086290      -14.7270086886      -48.7689648042  TIP3      7504            0.0000000000
     47427      7704  TIP3      H1             33.5443306416      -14.1054940812      -49.5083299596  TIP3      7504            0.0000000000
     47428      7704  TIP3      H2             33.4307356859      -15.5764921035      -49.2530184899  TIP3      7504            0.0000000000
     47429      7705  TIP3      OH2            32.5742204275      -13.3869543418      -43.4332190389  TIP3      7505            0.0000000000
     47430      7705  TIP3      H1             32.4228044782      -14.3414185629      -43.4833359887  TIP3      7505            0.0000000000
     47431      7705  TIP3      H2             32.2445823105      -13.1726102790      -42.5426281081  TIP3      7505            0.0000000000
     47432      7706  TIP3      OH2            17.5740520234      -11.3331722011      -39.3858625173  TIP3      7506            0.0000000000
     47433      7706  TIP3      H1             17.7580886476      -11.3617376595      -40.3489494724  TIP3      7506            0.0000000000
     47434      7706  TIP3      H2             18.4743786919      -11.4534696557      -39.0303306636  TIP3      7506            0.0000000000
     47435      7707  TIP3      OH2            33.4143118420      -11.4245236331      -33.7334314747  TIP3      7507            0.0000000000
     47436      7707  TIP3      H1             34.0383884310      -12.1715842773      -33.6313791342  TIP3      7507            0.0000000000
     47437      7707  TIP3      H2             34.0180370042      -10.6478733761      -33.7664371986  TIP3      7507            0.0000000000
     47438      7708  TIP3      OH2            34.9637401469      -13.5356488979      -33.1122027955  TIP3      7508            0.0000000000
     47439      7708  TIP3      H1             34.0798167801      -13.9286551785      -33.2701825248  TIP3      7508            0.0000000000
     47440      7708  TIP3      H2             35.5238242258      -14.3287482823      -33.1805304006  TIP3      7508            0.0000000000
     47441      7709  TIP3      OH2            32.6564419043      -17.4461606289      -49.9538837072  TIP3      7509            0.0000000000
     47442      7709  TIP3      H1             33.2434039256      -17.8567918357      -49.2929431616  TIP3      7509            0.0000000000
     47443      7709  TIP3      H2             31.7745207070      -17.7962145387      -49.7494938523  TIP3      7509            0.0000000000
     47444      7710  TIP3      OH2            32.2308038511      -15.8111781994      -45.0071940285  TIP3      7510            0.0000000000
     47445      7710  TIP3      H1             32.5343766147      -16.7383658792      -44.8616650627  TIP3      7510            0.0000000000
     47446      7710  TIP3      H2             33.0320201890      -15.4078149449      -45.3769230713  TIP3      7510            0.0000000000
     47447      7711  TIP3      OH2            32.8807383154      -15.2744592979      -39.5401218581  TIP3      7511            0.0000000000
     47448      7711  TIP3      H1             33.8366972368      -15.0275571770      -39.5644956822  TIP3      7511            0.0000000000
     47449      7711  TIP3      H2             32.6925964627      -15.1135570937      -38.6036982924  TIP3      7511            0.0000000000
     47450      7712  TIP3      OH2            32.9459997817      -14.5433883273      -36.7698174644  TIP3      7512            0.0000000000
     47451      7712  TIP3      H1             32.0655635162      -14.2501259046      -36.4525781010  TIP3      7512            0.0000000000
     47452      7712  TIP3      H2             33.3794842023      -13.6807017345      -36.9871375880  TIP3      7512            0.0000000000
     47453      7713  TIP3      OH2            17.1991970239      -15.9903236536      -33.2280870570  TIP3      7513            0.0000000000
     47454      7713  TIP3      H1             18.1348416297      -16.2118145331      -33.0413194489  TIP3      7513            0.0000000000
     47455      7713  TIP3      H2             16.7356191739      -16.8149213558      -32.9691295942  TIP3      7513            0.0000000000
     47456      7714  TIP3      OH2            35.2286953996      -20.4639719534      -31.4118797222  TIP3      7514            0.0000000000
     47457      7714  TIP3      H1             35.5820134395      -21.1274388399      -32.0346207797  TIP3      7514            0.0000000000
     47458      7714  TIP3      H2             35.3051412108      -19.6564670057      -31.9579981332  TIP3      7514            0.0000000000
     47459      7715  TIP3      OH2            32.8859681389      -18.5017991492      -44.9415132598  TIP3      7515            0.0000000000
     47460      7715  TIP3      H1             33.1226154504      -18.9457292104      -44.0954816710  TIP3      7515            0.0000000000
     47461      7715  TIP3      H2             32.2935224186      -19.1472786235      -45.3850182058  TIP3      7515            0.0000000000
     47462      7716  TIP3      OH2            18.3932589081      -17.7057438351      -40.3842369850  TIP3      7516            0.0000000000
     47463      7716  TIP3      H1             18.8547008757      -18.5327177995      -40.1305502204  TIP3      7516            0.0000000000
     47464      7716  TIP3      H2             18.9479592457      -17.0142139969      -39.9969406033  TIP3      7516            0.0000000000
     47465      7717  TIP3      OH2            16.6779946602      -14.7073344703      -39.3522123259  TIP3      7517            0.0000000000
     47466      7717  TIP3      H1             17.2428447179      -14.9552586824      -40.1121485738  TIP3      7517            0.0000000000
     47467      7717  TIP3      H2             17.1428539339      -13.9017429106      -39.0821182515  TIP3      7517            0.0000000000
     47468      7718  TIP3      OH2            34.7408716619      -18.3773746710      -33.0579532450  TIP3      7518            0.0000000000
     47469      7718  TIP3      H1             33.8051249993      -18.0909855808      -33.1061241018  TIP3      7518            0.0000000000
     47470      7718  TIP3      H2             34.7440715380      -18.9115257374      -33.8655924247  TIP3      7518            0.0000000000
     47471      7719  TIP3      OH2            34.7608132264      -18.4753358753      -48.3560714485  TIP3      7519            0.0000000000
     47472      7719  TIP3      H1             35.1705296108      -19.1505891580      -48.9177036388  TIP3      7519            0.0000000000
     47473      7719  TIP3      H2             35.4373788948      -17.7799189198      -48.3884036398  TIP3      7519            0.0000000000
     47474      7720  TIP3      OH2            17.0450327121      -18.4389948004      -45.2752098539  TIP3      7520            0.0000000000
     47475      7720  TIP3      H1             16.1046479759      -18.2628288813      -45.4161047359  TIP3      7520            0.0000000000
     47476      7720  TIP3      H2             17.4556302483      -17.9521343590      -46.0111218145  TIP3      7520            0.0000000000
     47477      7721  TIP3      OH2            31.7824314408       -3.4997540512      -43.3264388934  TIP3      7521            0.0000000000
     47478      7721  TIP3      H1             32.4433896562       -3.8076036590      -43.9650685447  TIP3      7521            0.0000000000
     47479      7721  TIP3      H2             32.2917538730       -2.9914332784      -42.6762986255  TIP3      7521            0.0000000000
     47480      7722  TIP3      OH2            16.9905264262      -19.7935780516      -36.9805402847  TIP3      7522            0.0000000000
     47481      7722  TIP3      H1             16.3237575098      -19.9848194906      -36.3002211668  TIP3      7522            0.0000000000
     47482      7722  TIP3      H2             16.5339112083      -19.1179929242      -37.5213060118  TIP3      7522            0.0000000000
     47483      7723  TIP3      OH2            19.2381956146       -6.5922376489      -32.8053502922  TIP3      7523            0.0000000000
     47484      7723  TIP3      H1             18.4029338959       -6.3879784546      -33.2724983196  TIP3      7523            0.0000000000
     47485      7723  TIP3      H2             18.9444337423       -6.6685493895      -31.8977282183  TIP3      7523            0.0000000000
     47486      7724  TIP3      OH2            22.1646089528       -5.5891849276      -36.5221924988  TIP3      7524            0.0000000000
     47487      7724  TIP3      H1             21.7624396663       -4.7585544831      -36.8229940257  TIP3      7524            0.0000000000
     47488      7724  TIP3      H2             23.0733699399       -5.4835024741      -36.8587841490  TIP3      7524            0.0000000000
     47489      7725  TIP3      OH2            26.4500832327       -4.1596662952      -33.6399079021  TIP3      7525            0.0000000000
     47490      7725  TIP3      H1             26.5859500296       -4.5164150015      -32.7311774898  TIP3      7525            0.0000000000
     47491      7725  TIP3      H2             27.3536089241       -3.8584952449      -33.8788848481  TIP3      7525            0.0000000000
     47492      7726  TIP3      OH2            28.7386688531       -2.8953496512      -34.3259799330  TIP3      7526            0.0000000000
     47493      7726  TIP3      H1             29.4699124860       -3.4785470822      -34.5630983536  TIP3      7526            0.0000000000
     47494      7726  TIP3      H2             29.1128298248       -2.4548931546      -33.5317217949  TIP3      7526            0.0000000000
     47495      7727  TIP3      OH2            33.7908252264      -20.2776096270      -35.2334766840  TIP3      7527            0.0000000000
     47496      7727  TIP3      H1             32.9403523820      -19.9716909445      -35.6085298778  TIP3      7527            0.0000000000
     47497      7727  TIP3      H2             33.9035528719      -21.1129784770      -35.7330975574  TIP3      7527            0.0000000000
     47498      7728  TIP3      OH2            19.5653655691       -2.3230333754      -36.5451725908  TIP3      7528            0.0000000000
     47499      7728  TIP3      H1             18.8138334645       -1.8640858905      -36.9470901555  TIP3      7528            0.0000000000
     47500      7728  TIP3      H2             19.2369661399       -2.5752639884      -35.6690769532  TIP3      7528            0.0000000000
     47501      7729  TIP3      OH2            22.0262751752       -2.7600762264      -37.4736159123  TIP3      7529            0.0000000000
     47502      7729  TIP3      H1             21.1211945432       -2.6496382961      -37.0899244313  TIP3      7529            0.0000000000
     47503      7729  TIP3      H2             21.9591957184       -2.1889018972      -38.2537815535  TIP3      7529            0.0000000000
     47504      7730  TIP3      OH2            26.7307145258       -2.8617986804      -38.2923197434  TIP3      7530            0.0000000000
     47505      7730  TIP3      H1             26.2768807542       -2.3133277295      -38.9458049398  TIP3      7530            0.0000000000
     47506      7730  TIP3      H2             26.8638400939       -2.2237652360      -37.5601203717  TIP3      7530            0.0000000000
     47507      7731  TIP3      OH2            29.0160882141       -4.0531921586      -37.2695615856  TIP3      7531            0.0000000000
     47508      7731  TIP3      H1             28.1643712827       -3.7736544364      -37.6435242568  TIP3      7531            0.0000000000
     47509      7731  TIP3      H2             29.5035428988       -3.2166364134      -37.3613806169  TIP3      7531            0.0000000000
     47510      7732  TIP3      OH2            31.6040307313       -2.4749572369      -37.0483935208  TIP3      7532            0.0000000000
     47511      7732  TIP3      H1             31.5491055251       -1.5175033148      -37.2815330645  TIP3      7532            0.0000000000
     47512      7732  TIP3      H2             31.7969489029       -2.8534782598      -37.9278933831  TIP3      7532            0.0000000000
     47513      7733  TIP3      OH2            19.0385557423       -3.6688146711      -39.5984747719  TIP3      7533            0.0000000000
     47514      7733  TIP3      H1             18.9400299636       -4.1621625101      -38.7514555131  TIP3      7533            0.0000000000
     47515      7733  TIP3      H2             19.8219016225       -4.0986475017      -39.9862836970  TIP3      7533            0.0000000000
     47516      7734  TIP3      OH2            21.1176364491       -4.9934105141      -40.9816246057  TIP3      7534            0.0000000000
     47517      7734  TIP3      H1             20.9063406622       -5.9083598585      -40.7005071148  TIP3      7534            0.0000000000
     47518      7734  TIP3      H2             21.9575577758       -4.8388955518      -40.5027236903  TIP3      7534            0.0000000000
     47519      7735  TIP3      OH2            23.7040583783       -4.5009308426      -40.0694984451  TIP3      7535            0.0000000000
     47520      7735  TIP3      H1             23.8411324892       -5.4292249164      -40.3343629796  TIP3      7535            0.0000000000
     47521      7735  TIP3      H2             23.7375591184       -4.5604350691      -39.1045248616  TIP3      7535            0.0000000000
     47522      7736  TIP3      OH2            27.1458571842      -18.8519344130      -40.9433407672  TIP3      7536            0.0000000000
     47523      7736  TIP3      H1             26.4725549880      -19.4926812657      -40.6542970894  TIP3      7536            0.0000000000
     47524      7736  TIP3      H2             27.7001363497      -19.3892426472      -41.5202031194  TIP3      7536            0.0000000000
     47525      7737  TIP3      OH2            32.2842030863      -20.8056477800      -40.8758767780  TIP3      7537            0.0000000000
     47526      7737  TIP3      H1             32.8941290336      -20.2138654783      -41.3828177096  TIP3      7537            0.0000000000
     47527      7737  TIP3      H2             31.4015149707      -20.4449182451      -41.1035335481  TIP3      7537            0.0000000000
     47528      7738  TIP3      OH2            33.9427763765      -19.5515656213      -42.5955931312  TIP3      7538            0.0000000000
     47529      7738  TIP3      H1             34.6246501336      -20.1352542706      -43.0109672852  TIP3      7538            0.0000000000
     47530      7738  TIP3      H2             34.4603095738      -18.7198662801      -42.4775087776  TIP3      7538            0.0000000000
     47531      7739  TIP3      OH2            19.5260337062      -20.2359627377      -43.0878932800  TIP3      7539            0.0000000000
     47532      7739  TIP3      H1             18.7205009559      -20.4159779510      -43.6131621589  TIP3      7539            0.0000000000
     47533      7739  TIP3      H2             19.9798480088      -21.0968927845      -43.1461240375  TIP3      7539            0.0000000000
     47534      7740  TIP3      OH2            18.2655897214      -20.4738011112      -47.4093710628  TIP3      7540            0.0000000000
     47535      7740  TIP3      H1             18.7973570014      -19.7979969546      -47.8755262693  TIP3      7540            0.0000000000
     47536      7740  TIP3      H2             17.7473164477      -19.9171383289      -46.8013518990  TIP3      7540            0.0000000000
     47537      7741  TIP3      OH2            23.9969262838      -20.3525931820      -43.3053206563  TIP3      7541            0.0000000000
     47538      7741  TIP3      H1             24.8826299577      -19.9539775414      -43.3786619626  TIP3      7541            0.0000000000
     47539      7741  TIP3      H2             23.9479101234      -20.5006439842      -42.3629671287  TIP3      7541            0.0000000000
     47540      7742  TIP3      OH2            29.7085336951      -20.2849194192      -41.6773949687  TIP3      7542            0.0000000000
     47541      7742  TIP3      H1             29.6508126342      -20.1700541390      -42.6350652394  TIP3      7542            0.0000000000
     47542      7742  TIP3      H2             29.3167210059      -21.1833676718      -41.5432948949  TIP3      7542            0.0000000000
     47543      7743  TIP3      OH2            30.9893847191      -20.2597439870      -46.0071806513  TIP3      7543            0.0000000000
     47544      7743  TIP3      H1             30.2411832418      -19.6672612379      -46.1785521332  TIP3      7543            0.0000000000
     47545      7743  TIP3      H2             30.5351783269      -21.1055738796      -45.7884345608  TIP3      7543            0.0000000000
     47546      7744  TIP3      OH2            18.2495849991       -4.5188402563      -46.4334940134  TIP3      7544            0.0000000000
     47547      7744  TIP3      H1             17.5026785087       -4.5366834348      -47.0505190241  TIP3      7544            0.0000000000
     47548      7744  TIP3      H2             18.2077140618       -3.5861369709      -46.1642354641  TIP3      7544            0.0000000000
     47549      7745  TIP3      OH2            20.0920532031      -18.5696463240      -48.8477631520  TIP3      7545            0.0000000000
     47550      7745  TIP3      H1             20.6227010764      -19.2005936162      -49.3455037344  TIP3      7545            0.0000000000
     47551      7745  TIP3      H2             20.7517732243      -18.2030757419      -48.2307331277  TIP3      7545            0.0000000000
     47552      7746  TIP3      OH2            25.1635617190      -18.2690707438      -46.4585726959  TIP3      7546            0.0000000000
     47553      7746  TIP3      H1             25.3956648024      -18.8661699238      -45.7285500551  TIP3      7546            0.0000000000
     47554      7746  TIP3      H2             25.2004652575      -17.4195719490      -45.9628181757  TIP3      7546            0.0000000000
     47555      7747  TIP3      OH2            27.0725896286       -3.2221853704      -48.0098902603  TIP3      7547            0.0000000000
     47556      7747  TIP3      H1             28.0074548120       -2.9644805561      -48.1842835742  TIP3      7547            0.0000000000
     47557      7747  TIP3      H2             26.8938263324       -3.7136216963      -48.8302293617  TIP3      7547            0.0000000000
     47558      7748  TIP3      OH2            33.8531944136       -3.7358773119      -45.3496941848  TIP3      7548            0.0000000000
     47559      7748  TIP3      H1             33.5407971332       -4.5091847325      -45.8734791731  TIP3      7548            0.0000000000
     47560      7748  TIP3      H2             33.6451426475       -2.9787336713      -45.9401760885  TIP3      7548            0.0000000000
     47561      7749  TIP3      OH2            19.4032872633      -19.6847386665      -33.6370770266  TIP3      7549            0.0000000000
     47562      7749  TIP3      H1             19.0135757298      -20.4804612807      -33.2317913239  TIP3      7549            0.0000000000
     47563      7749  TIP3      H2             20.3123412799      -19.7282423003      -33.2539380803  TIP3      7549            0.0000000000
     47564      7750  TIP3      OH2            21.4017121318      -20.3054724434      -31.9887848844  TIP3      7550            0.0000000000
     47565      7750  TIP3      H1             22.2962778958      -20.6395258511      -32.2083985641  TIP3      7550            0.0000000000
     47566      7750  TIP3      H2             21.0314876012      -21.1139748164      -31.5879487211  TIP3      7550            0.0000000000
     47567      7751  TIP3      OH2            20.3606423037       -3.3493370265      -49.1146185533  TIP3      7551            0.0000000000
     47568      7751  TIP3      H1             19.7880911860       -3.3036243410      -48.3367578361  TIP3      7551            0.0000000000
     47569      7751  TIP3      H2             20.8450405629       -4.1732546900      -49.0261236612  TIP3      7551            0.0000000000
     47570      7752  TIP3      OH2            29.8109401960      -21.0134136821      -31.8399470818  TIP3      7552            0.0000000000
     47571      7752  TIP3      H1             29.9006463207      -21.4900698251      -30.9921839546  TIP3      7552            0.0000000000
     47572      7752  TIP3      H2             30.7244334643      -21.0520849438      -32.1849152691  TIP3      7552            0.0000000000
     47573      7753  TIP3      OH2            33.0167472446       -4.9657867557      -33.2116408016  TIP3      7553            0.0000000000
     47574      7753  TIP3      H1             32.2129343087       -5.1024925777      -33.7586114452  TIP3      7553            0.0000000000
     47575      7753  TIP3      H2             32.8958958355       -4.0199090305      -32.9944205389  TIP3      7553            0.0000000000
     47576      7754  TIP3      OH2            38.5636526937      -12.0907927194      -38.0439779789  TIP3      7554            0.0000000000
     47577      7754  TIP3      H1             38.7527647474      -12.8696577880      -37.4718478520  TIP3      7554            0.0000000000
     47578      7754  TIP3      H2             39.4295306747      -11.6527025090      -38.0470719312  TIP3      7554            0.0000000000
     47579      7755  TIP3      OH2           -40.3925113060       -8.2543725437      -39.3035907118  TIP3      7555            0.0000000000
     47580      7755  TIP3      H1            -40.6072546489       -8.7947606352      -40.0903453193  TIP3      7555            0.0000000000
     47581      7755  TIP3      H2            -39.5357109887       -7.9261263656      -39.5894555126  TIP3      7555            0.0000000000
     47582      7756  TIP3      OH2            36.1973261754      -14.1913694143      -44.1971153366  TIP3      7556            0.0000000000
     47583      7756  TIP3      H1             35.8058684202      -13.2967568490      -44.2516312813  TIP3      7556            0.0000000000
     47584      7756  TIP3      H2             35.6311824909      -14.6972993056      -44.7868043100  TIP3      7556            0.0000000000
     47585      7757  TIP3      OH2            36.9449831203      -11.9284939073      -42.0564716809  TIP3      7557            0.0000000000
     47586      7757  TIP3      H1             37.2203847198      -12.7443165396      -41.5930142273  TIP3      7557            0.0000000000
     47587      7757  TIP3      H2             37.6656047293      -11.8179307851      -42.6967793880  TIP3      7557            0.0000000000
     47588      7758  TIP3      OH2            37.5883636520      -14.4801241198      -41.0188427086  TIP3      7558            0.0000000000
     47589      7758  TIP3      H1             38.2845777744      -14.9661531621      -40.5375289986  TIP3      7558            0.0000000000
     47590      7758  TIP3      H2             37.7377398260      -14.8025215079      -41.9189393321  TIP3      7558            0.0000000000
     47591      7759  TIP3      OH2            39.3770798327      -16.5800568181      -39.6958958617  TIP3      7559            0.0000000000
     47592      7759  TIP3      H1             39.7675797041      -15.7978492109      -39.2475839653  TIP3      7559            0.0000000000
     47593      7759  TIP3      H2             39.9457525421      -16.7027106736      -40.4786794609  TIP3      7559            0.0000000000
     47594      7760  TIP3      OH2            36.9472220986       -8.7223687983      -45.8128024440  TIP3      7560            0.0000000000
     47595      7760  TIP3      H1             36.6462781715       -8.4340408246      -46.6918414743  TIP3      7560            0.0000000000
     47596      7760  TIP3      H2             37.0149077475       -7.8805006724      -45.3394126508  TIP3      7560            0.0000000000
     47597      7761  TIP3      OH2            38.9676788248      -11.6779132184      -35.2417322586  TIP3      7561            0.0000000000
     47598      7761  TIP3      H1             39.2130674294      -10.9355297024      -34.6543051274  TIP3      7561            0.0000000000
     47599      7761  TIP3      H2             38.1369296354      -11.3983040102      -35.6514040834  TIP3      7561            0.0000000000
     47600      7762  TIP3      OH2            36.1767783297       -9.5217641640      -36.3509640813  TIP3      7562            0.0000000000
     47601      7762  TIP3      H1             35.7950983505       -9.6129787121      -37.2388729157  TIP3      7562            0.0000000000
     47602      7762  TIP3      H2             36.3229641640      -10.4700890448      -36.1559359532  TIP3      7562            0.0000000000
     47603      7763  TIP3      OH2            36.0492568687       -6.7478247364      -39.6541099411  TIP3      7563            0.0000000000
     47604      7763  TIP3      H1             36.9891417540       -6.9525714095      -39.5569559877  TIP3      7563            0.0000000000
     47605      7763  TIP3      H2             35.9177250008       -5.9877535926      -39.0668394718  TIP3      7563            0.0000000000
     47606      7764  TIP3      OH2            39.0230248127       -4.3195417181      -43.5263054549  TIP3      7564            0.0000000000
     47607      7764  TIP3      H1             39.3874094987       -4.4420194211      -42.6157279671  TIP3      7564            0.0000000000
     47608      7764  TIP3      H2             38.2003045612       -4.8068546621      -43.5285194326  TIP3      7564            0.0000000000
     47609      7765  TIP3      OH2            38.4860772758       -8.1867410986      -35.3916087336  TIP3      7565            0.0000000000
     47610      7765  TIP3      H1             38.7737321957       -8.6060889049      -34.5569454113  TIP3      7565            0.0000000000
     47611      7765  TIP3      H2             37.6652025389       -8.6356628758      -35.6524379256  TIP3      7565            0.0000000000
     47612      7766  TIP3      OH2            38.9276189335      -14.4985367377      -36.4920467714  TIP3      7566            0.0000000000
     47613      7766  TIP3      H1             38.9643131176      -14.1557508331      -35.5930366244  TIP3      7566            0.0000000000
     47614      7766  TIP3      H2             38.5193623320      -15.3691802221      -36.3699850565  TIP3      7566            0.0000000000
     47615      7767  TIP3      OH2            35.5759425772      -17.4020092375      -42.5543656967  TIP3      7567            0.0000000000
     47616      7767  TIP3      H1             36.2694218478      -17.4545843679      -41.8562408288  TIP3      7567            0.0000000000
     47617      7767  TIP3      H2             36.0255217811      -17.7771299607      -43.3293575957  TIP3      7567            0.0000000000
     47618      7768  TIP3      OH2            36.8275800871      -16.7098486999      -47.1769684595  TIP3      7568            0.0000000000
     47619      7768  TIP3      H1             37.3275848051      -16.0949565158      -47.7616187076  TIP3      7568            0.0000000000
     47620      7768  TIP3      H2             36.1601018858      -16.0669244422      -46.8643766177  TIP3      7568            0.0000000000
     47621      7769  TIP3      OH2            38.5558271923      -15.4269216108      -43.6023781849  TIP3      7569            0.0000000000
     47622      7769  TIP3      H1             37.6316222524      -15.4253741715      -43.8803854542  TIP3      7569            0.0000000000
     47623      7769  TIP3      H2             38.8871730770      -16.3378712392      -43.7125706611  TIP3      7569            0.0000000000
     47624      7770  TIP3      OH2            39.0074043838       -9.6745553970      -33.2460705819  TIP3      7570            0.0000000000
     47625      7770  TIP3      H1             39.6247200496       -9.5157302988      -32.5503724139  TIP3      7570            0.0000000000
     47626      7770  TIP3      H2             38.2005287254       -9.6176454632      -32.6907191067  TIP3      7570            0.0000000000
     47627      7771  TIP3      OH2            39.2061506223      -10.4133347304      -40.8338360655  TIP3      7571            0.0000000000
     47628      7771  TIP3      H1             40.0686194757      -10.4028021122      -41.2784618870  TIP3      7571            0.0000000000
     47629      7771  TIP3      H2             39.3699405469      -11.1050270374      -40.1497488868  TIP3      7571            0.0000000000
     47630      7772  TIP3      OH2            36.3598347806      -11.9433228363      -35.2356572466  TIP3      7572            0.0000000000
     47631      7772  TIP3      H1             36.6599435439      -12.4357548634      -34.4463054485  TIP3      7572            0.0000000000
     47632      7772  TIP3      H2             35.8298524056      -12.6055323936      -35.7168156956  TIP3      7572            0.0000000000
     47633      7773  TIP3      OH2            37.6075968259      -12.1414284213      -48.5612090926  TIP3      7573            0.0000000000
     47634      7773  TIP3      H1             38.1528904488      -11.4386556400      -48.1580188632  TIP3      7573            0.0000000000
     47635      7773  TIP3      H2             36.6878190380      -11.8332476796      -48.3580369748  TIP3      7573            0.0000000000
     47636      7774  TIP3      OH2            38.0661221121      -17.2939301570      -35.7312508473  TIP3      7574            0.0000000000
     47637      7774  TIP3      H1             37.1700291244      -16.9171866917      -35.7937309254  TIP3      7574            0.0000000000
     47638      7774  TIP3      H2             37.9487364252      -18.1184807997      -35.2457173281  TIP3      7574            0.0000000000
     47639      7775  TIP3      OH2            37.7082586911       -5.4815469585      -37.2969090292  TIP3      7575            0.0000000000
     47640      7775  TIP3      H1             37.9473808704       -6.4222565506      -37.2758364191  TIP3      7575            0.0000000000
     47641      7775  TIP3      H2             37.9796457053       -5.1883826436      -36.4151743495  TIP3      7575            0.0000000000
     47642      7776  TIP3      OH2            38.9568761236      -10.1870222844      -47.1727902056  TIP3      7576            0.0000000000
     47643      7776  TIP3      H1             38.3108531971       -9.8599217242      -46.5078163849  TIP3      7576            0.0000000000
     47644      7776  TIP3      H2             39.4301608673       -9.3751445736      -47.3434828445  TIP3      7576            0.0000000000
     47645      7777  TIP3      OH2            39.2844552709       -7.4023878540      -48.0242628233  TIP3      7577            0.0000000000
     47646      7777  TIP3      H1             40.0548680283       -6.8607137949      -47.8442462418  TIP3      7577            0.0000000000
     47647      7777  TIP3      H2             39.7037728896       -7.9029759004      -48.7725951075  TIP3      7577            0.0000000000
     47648      7778  TIP3      OH2            37.8213834668      -14.8837099784      -48.8360005328  TIP3      7578            0.0000000000
     47649      7778  TIP3      H1             37.8764175108      -13.9108799003      -48.9077291780  TIP3      7578            0.0000000000
     47650      7778  TIP3      H2             37.0920352587      -15.0874223095      -49.4453161367  TIP3      7578            0.0000000000
     47651      7779  TIP3      OH2            38.6446210819      -20.0681265750      -40.3069241094  TIP3      7579            0.0000000000
     47652      7779  TIP3      H1             38.5011981236      -19.9907203674      -41.2859821616  TIP3      7579            0.0000000000
     47653      7779  TIP3      H2             38.2716253155      -20.9350890444      -40.1158483203  TIP3      7579            0.0000000000
     47654      7780  TIP3      OH2            37.5289139741       -6.1929632591      -44.2094912265  TIP3      7580            0.0000000000
     47655      7780  TIP3      H1             36.6727012626       -5.7957942979      -44.3760230816  TIP3      7580            0.0000000000
     47656      7780  TIP3      H2             38.1319184134       -5.8031813960      -44.8741210595  TIP3      7580            0.0000000000
     47657      7781  TIP3      OH2            36.8564741581       -3.5336810005      -32.9129199187  TIP3      7581            0.0000000000
     47658      7781  TIP3      H1             37.4638477955       -3.7391310081      -32.1723475873  TIP3      7581            0.0000000000
     47659      7781  TIP3      H2             36.4328826902       -4.3947494040      -33.0952500628  TIP3      7581            0.0000000000
     47660      7782  TIP3      OH2            36.7742956555       -9.7642039608      -31.9211150623  TIP3      7582            0.0000000000
     47661      7782  TIP3      H1             36.9552026873      -10.6666375334      -32.2407957066  TIP3      7582            0.0000000000
     47662      7782  TIP3      H2             36.0273757451       -9.4954869307      -32.4887519250  TIP3      7582            0.0000000000
     47663      7783  TIP3      OH2            37.7022354696      -12.5091384223      -32.5019044362  TIP3      7583            0.0000000000
     47664      7783  TIP3      H1             38.0122384998      -13.4074760235      -32.6646596198  TIP3      7583            0.0000000000
     47665      7783  TIP3      H2             37.4211263097      -12.5473725896      -31.5768269878  TIP3      7583            0.0000000000
     47666      7784  TIP3      OH2            38.3991522877      -17.1040454894      -32.4140145192  TIP3      7584            0.0000000000
     47667      7784  TIP3      H1             38.6632691255      -17.8047596694      -33.0380151139  TIP3      7584            0.0000000000
     47668      7784  TIP3      H2             38.4495200661      -17.5430695122      -31.5453759129  TIP3      7584            0.0000000000
     47669      7785  TIP3      OH2            36.7889417895       -7.8861034099      -48.6406804903  TIP3      7585            0.0000000000
     47670      7785  TIP3      H1             37.7501081805       -7.7827199176      -48.4732727444  TIP3      7585            0.0000000000
     47671      7785  TIP3      H2             36.8264187610       -8.5068477317      -49.3816076838  TIP3      7585            0.0000000000
     47672      7786  TIP3      OH2            35.2679618926       -2.4493999982      -43.7017942147  TIP3      7586            0.0000000000
     47673      7786  TIP3      H1             34.6534231988       -2.9774050896      -44.2670133809  TIP3      7586            0.0000000000
     47674      7786  TIP3      H2             35.4533607307       -3.0571104770      -42.9658823499  TIP3      7586            0.0000000000
     47675      7787  TIP3      OH2            36.3815844204       -4.3797636824      -41.8876872053  TIP3      7587            0.0000000000
     47676      7787  TIP3      H1             36.0208313029       -5.2599355457      -41.6526963475  TIP3      7587            0.0000000000
     47677      7787  TIP3      H2             36.5970902156       -4.0619661909      -40.9794591176  TIP3      7587            0.0000000000
     47678      7788  TIP3      OH2            36.4468492010      -11.3096355122      -39.3990993594  TIP3      7588            0.0000000000
     47679      7788  TIP3      H1             36.6363535650      -11.3957438268      -40.3578604573  TIP3      7588            0.0000000000
     47680      7788  TIP3      H2             37.3426683171      -11.4958914139      -39.0288877348  TIP3      7588            0.0000000000
     47681      7789  TIP3      OH2            36.0045930678      -15.9838839748      -33.2332927798  TIP3      7589            0.0000000000
     47682      7789  TIP3      H1             36.9372221873      -16.1913754360      -33.0368609085  TIP3      7589            0.0000000000
     47683      7789  TIP3      H2             35.5738083821      -16.8175825639      -32.9692443125  TIP3      7589            0.0000000000
     47684      7790  TIP3      OH2            37.1571097288      -17.7160181989      -40.3715694851  TIP3      7590            0.0000000000
     47685      7790  TIP3      H1             37.7157220976      -18.4992977580      -40.2052789453  TIP3      7590            0.0000000000
     47686      7790  TIP3      H2             37.7868684375      -17.0512038327      -40.0276283915  TIP3      7590            0.0000000000
     47687      7791  TIP3      OH2            35.5342572415      -14.7028563292      -39.3722113800  TIP3      7591            0.0000000000
     47688      7791  TIP3      H1             36.1399014483      -14.9477815392      -40.1075681371  TIP3      7591            0.0000000000
     47689      7791  TIP3      H2             35.9888802519      -13.9009870807      -39.0790657735  TIP3      7591            0.0000000000
     47690      7792  TIP3      OH2            35.9191757948      -18.4679481889      -45.3024883219  TIP3      7592            0.0000000000
     47691      7792  TIP3      H1             34.9761197299      -18.2617586756      -45.4132818479  TIP3      7592            0.0000000000
     47692      7792  TIP3      H2             36.3314717904      -17.9529100339      -46.0199434444  TIP3      7592            0.0000000000
     47693      7793  TIP3      OH2            35.8484275934      -19.8299184382      -37.0041578359  TIP3      7593            0.0000000000
     47694      7793  TIP3      H1             35.1782414764      -19.9526223869      -36.2981817074  TIP3      7593            0.0000000000
     47695      7793  TIP3      H2             35.4267121120      -19.1056057820      -37.5243778134  TIP3      7593            0.0000000000
     47696      7794  TIP3      OH2            38.0939138614       -6.6257914630      -32.7777278058  TIP3      7594            0.0000000000
     47697      7794  TIP3      H1             37.2914919496       -6.4145839262      -33.2900077567  TIP3      7594            0.0000000000
     47698      7794  TIP3      H2             37.7399326595       -6.6500338358      -31.8907500732  TIP3      7594            0.0000000000
     47699      7795  TIP3      OH2            38.3061299314       -2.4404737158      -36.5261637694  TIP3      7595            0.0000000000
     47700      7795  TIP3      H1             37.6019356817       -1.9057586493      -36.9332815639  TIP3      7595            0.0000000000
     47701      7795  TIP3      H2             38.0098696734       -2.5875656275      -35.6253808752  TIP3      7595            0.0000000000
     47702      7796  TIP3      OH2            37.8203282653       -3.7476280626      -39.6253311091  TIP3      7596            0.0000000000
     47703      7796  TIP3      H1             37.7648272639       -4.1295826914      -38.7157785545  TIP3      7596            0.0000000000
     47704      7796  TIP3      H2             38.7002745699       -4.0181529969      -39.9083169156  TIP3      7596            0.0000000000
     47705      7797  TIP3      OH2            38.0481675959      -20.2324828815      -42.8895519721  TIP3      7597            0.0000000000
     47706      7797  TIP3      H1             37.4549935395      -20.3909659359      -43.6396726117  TIP3      7597            0.0000000000
     47707      7797  TIP3      H2             38.8055441105      -20.7995589557      -43.0922369170  TIP3      7597            0.0000000000
     47708      7798  TIP3      OH2            37.1141601646      -20.4796426367      -47.3810418186  TIP3      7598            0.0000000000
     47709      7798  TIP3      H1             37.6405535698      -19.8111670463      -47.8826903871  TIP3      7598            0.0000000000
     47710      7798  TIP3      H2             36.5931904951      -19.8933807467      -46.8027061446  TIP3      7598            0.0000000000
     47711      7799  TIP3      OH2            37.0350902077       -4.5142185276      -46.3604180433  TIP3      7599            0.0000000000
     47712      7799  TIP3      H1             36.3832829406       -4.5517797457      -47.0880056909  TIP3      7599            0.0000000000
     47713      7799  TIP3      H2             37.0848497954       -3.5511290095      -46.2845408240  TIP3      7599            0.0000000000
     47714      7800  TIP3      OH2            38.9497336607      -18.6234482511      -48.7177177080  TIP3      7600            0.0000000000
     47715      7800  TIP3      H1             39.4715874153      -19.0769139926      -49.4081333956  TIP3      7600            0.0000000000
     47716      7800  TIP3      H2             39.6418844282      -18.1326887929      -48.2708876868  TIP3      7600            0.0000000000
     47717      7801  TIP3      OH2            38.3349697113      -19.7283152707      -33.6151053347  TIP3      7601            0.0000000000
     47718      7801  TIP3      H1             37.9096622447      -20.4882710912      -33.1734437725  TIP3      7601            0.0000000000
     47719      7801  TIP3      H2             39.2518694893      -19.7564830374      -33.3035211157  TIP3      7601            0.0000000000
     47720      7802  TIP3      OH2            39.2332507498       -3.4181203127      -49.1153553533  TIP3      7602            0.0000000000
     47721      7802  TIP3      H1             38.6616491538       -3.2845602733      -48.3459033406  TIP3      7602            0.0000000000
     47722      7802  TIP3      H2             39.7484402910       -4.2113994541      -49.0163449433  TIP3      7602            0.0000000000
     47723      7803  TIP3      OH2           -27.9594476497        7.7710965664      -43.2446440577  TIP3      7603            0.0000000000
     47724      7803  TIP3      H1            -27.9777903243        8.7511895169      -43.2678325159  TIP3      7603            0.0000000000
     47725      7803  TIP3      H2            -28.6941400450        7.5351413137      -43.8331189362  TIP3      7603            0.0000000000
     47726      7804  TIP3      OH2           -29.1026282129        7.0237144193      -39.7284263357  TIP3      7604            0.0000000000
     47727      7804  TIP3      H1            -29.1252964821        6.3712791567      -39.0135184916  TIP3      7604            0.0000000000
     47728      7804  TIP3      H2            -29.4562302727        6.5259862962      -40.4868423806  TIP3      7604            0.0000000000
     47729      7805  TIP3      OH2           -36.6614186140        6.6509180663      -38.2126271709  TIP3      7605            0.0000000000
     47730      7805  TIP3      H1            -36.6716993120        6.0103862810      -37.4716587468  TIP3      7605            0.0000000000
     47731      7805  TIP3      H2            -35.9977116639        7.2844076154      -37.9117150004  TIP3      7605            0.0000000000
     47732      7806  TIP3      OH2           -25.4218117783        9.9732521036      -41.4454517468  TIP3      7606            0.0000000000
     47733      7806  TIP3      H1            -25.8341466777        9.2587295758      -40.9541744625  TIP3      7606            0.0000000000
     47734      7806  TIP3      H2            -25.3972664229       10.6795715475      -40.7741586242  TIP3      7606            0.0000000000
     47735      7807  TIP3      OH2           -35.8383117015       11.1365080766      -39.6691539001  TIP3      7607            0.0000000000
     47736      7807  TIP3      H1            -36.1301109534       10.2697963939      -40.0040446005  TIP3      7607            0.0000000000
     47737      7807  TIP3      H2            -34.8801375106       10.9695131675      -39.6260663164  TIP3      7607            0.0000000000
     47738      7808  TIP3      OH2           -39.0947327391        4.7796756367      -44.3574663604  TIP3      7608            0.0000000000
     47739      7808  TIP3      H1            -39.6149824909        5.5845318577      -44.2194465484  TIP3      7608            0.0000000000
     47740      7808  TIP3      H2            -39.7970368912        4.1606437919      -44.6144590533  TIP3      7608            0.0000000000
     47741      7809  TIP3      OH2           -38.4127933089        6.9736520403      -41.9714406483  TIP3      7609            0.0000000000
     47742      7809  TIP3      H1            -38.2321515202        6.0998953031      -41.5812798405  TIP3      7609            0.0000000000
     47743      7809  TIP3      H2            -37.7664797031        7.0369426596      -42.6908625751  TIP3      7609            0.0000000000
     47744      7810  TIP3      OH2           -28.2963393802       15.1328174659      -41.2024836372  TIP3      7610            0.0000000000
     47745      7810  TIP3      H1            -27.6525298063       14.4411125229      -41.4939893484  TIP3      7610            0.0000000000
     47746      7810  TIP3      H2            -28.5190924578       14.7903583981      -40.3372829671  TIP3      7610            0.0000000000
     47747      7811  TIP3      OH2           -30.7329097586        9.4190830826      -39.2541631423  TIP3      7611            0.0000000000
     47748      7811  TIP3      H1            -30.3959186078        8.7955000572      -39.9143827295  TIP3      7611            0.0000000000
     47749      7811  TIP3      H2            -29.9211531941        9.5791913891      -38.7418333568  TIP3      7611            0.0000000000
     47750      7812  TIP3      OH2           -22.1370970366        1.0868771685      -38.5362056729  TIP3      7612            0.0000000000
     47751      7812  TIP3      H1            -21.9591456256        1.6704589911      -37.7687348807  TIP3      7612            0.0000000000
     47752      7812  TIP3      H2            -21.5618654261        1.5027228011      -39.1944789788  TIP3      7612            0.0000000000
     47753      7813  TIP3      OH2           -27.5906575782        3.8708624191      -38.9189598774  TIP3      7613            0.0000000000
     47754      7813  TIP3      H1            -27.3831135045        2.9200887833      -38.9498673769  TIP3      7613            0.0000000000
     47755      7813  TIP3      H2            -27.6719333761        4.0347031917      -39.8805496805  TIP3      7613            0.0000000000
     47756      7814  TIP3      OH2           -34.4805903671        1.9909444415      -41.7253840603  TIP3      7614            0.0000000000
     47757      7814  TIP3      H1            -34.3352208681        2.8143854384      -42.2290245544  TIP3      7614            0.0000000000
     47758      7814  TIP3      H2            -34.8423673978        1.4046356584      -42.4250386928  TIP3      7614            0.0000000000
     47759      7815  TIP3      OH2           -26.7114635075        2.0618554085      -43.3585353523  TIP3      7615            0.0000000000
     47760      7815  TIP3      H1            -26.0625613091        1.7449973492      -42.6865324694  TIP3      7615            0.0000000000
     47761      7815  TIP3      H2            -26.1464218124        2.6312836811      -43.9053122240  TIP3      7615            0.0000000000
     47762      7816  TIP3      OH2           -37.7958840085        4.3627806290      -41.0053391480  TIP3      7616            0.0000000000
     47763      7816  TIP3      H1            -37.1170373590        3.8309948133      -40.5580730371  TIP3      7616            0.0000000000
     47764      7816  TIP3      H2            -37.7087298611        4.0570404162      -41.9191771089  TIP3      7616            0.0000000000
     47765      7817  TIP3      OH2           -32.6647031833        5.9431532303      -41.6694452188  TIP3      7617            0.0000000000
     47766      7817  TIP3      H1            -31.9968044306        5.3618072012      -41.2608272200  TIP3      7617            0.0000000000
     47767      7817  TIP3      H2            -33.1816982676        5.2887494527      -42.1800792396  TIP3      7617            0.0000000000
     47768      7818  TIP3      OH2           -21.6904622203        2.4945671526      -36.2553581420  TIP3      7618            0.0000000000
     47769      7818  TIP3      H1            -22.3000553240        3.2553779936      -36.3683014657  TIP3      7618            0.0000000000
     47770      7818  TIP3      H2            -21.6615252991        2.4083709966      -35.2958938027  TIP3      7618            0.0000000000
     47771      7819  TIP3      OH2           -35.5382814853        0.8847116425      -37.6863498091  TIP3      7619            0.0000000000
     47772      7819  TIP3      H1            -35.8168209240        1.4438167515      -38.4423038603  TIP3      7619            0.0000000000
     47773      7819  TIP3      H2            -36.2311935190        1.1120156712      -37.0174648035  TIP3      7619            0.0000000000
     47774      7820  TIP3      OH2           -28.2642872612       10.3543019140      -44.1425124222  TIP3      7620            0.0000000000
     47775      7820  TIP3      H1            -28.5397278269       10.0723943947      -45.0275277405  TIP3      7620            0.0000000000
     47776      7820  TIP3      H2            -28.5626224792       11.2931466281      -44.1027937540  TIP3      7620            0.0000000000
     47777      7821  TIP3      OH2           -33.0324900500        8.5177273721      -37.4499869800  TIP3      7621            0.0000000000
     47778      7821  TIP3      H1            -33.7460701595        9.1517088187      -37.2214832724  TIP3      7621            0.0000000000
     47779      7821  TIP3      H2            -32.3332527237        9.1265045343      -37.7425362266  TIP3      7621            0.0000000000
     47780      7822  TIP3      OH2           -24.9134187930        1.4085464237      -41.3524559476  TIP3      7622            0.0000000000
     47781      7822  TIP3      H1            -25.1065104002        0.6164655649      -40.8316687535  TIP3      7622            0.0000000000
     47782      7822  TIP3      H2            -24.2209819988        1.8338805407      -40.8187200300  TIP3      7622            0.0000000000
     47783      7823  TIP3      OH2           -35.9844762438        2.7206267550      -39.6374265432  TIP3      7623            0.0000000000
     47784      7823  TIP3      H1            -35.3739229373        3.4253575678      -39.3289771478  TIP3      7623            0.0000000000
     47785      7823  TIP3      H2            -35.4597467415        2.3295718329      -40.3865621894  TIP3      7623            0.0000000000
     47786      7824  TIP3      OH2           -34.5730794131       10.5298208513      -36.6343614798  TIP3      7624            0.0000000000
     47787      7824  TIP3      H1            -34.6218230432       11.4480941776      -36.9636113744  TIP3      7624            0.0000000000
     47788      7824  TIP3      H2            -35.4622151461       10.4413768906      -36.2117891378  TIP3      7624            0.0000000000
     47789      7825  TIP3      OH2           -38.4372072552       10.1745612195      -45.8371744171  TIP3      7625            0.0000000000
     47790      7825  TIP3      H1            -38.7970752234       10.4473197108      -46.6846376866  TIP3      7625            0.0000000000
     47791      7825  TIP3      H2            -38.4573741426       10.9887509002      -45.3089736957  TIP3      7625            0.0000000000
     47792      7826  TIP3      OH2           -24.8942631145       11.8096570444      -39.0759243012  TIP3      7626            0.0000000000
     47793      7826  TIP3      H1            -25.8629000467       11.9220295312      -38.9590061102  TIP3      7626            0.0000000000
     47794      7826  TIP3      H2            -24.6243770278       12.7243708157      -39.2816350798  TIP3      7626            0.0000000000
     47795      7827  TIP3      OH2           -24.5812409371        0.1106307559      -37.6869126279  TIP3      7627            0.0000000000
     47796      7827  TIP3      H1            -25.3075362335        0.7407762856      -37.7825524028  TIP3      7627            0.0000000000
     47797      7827  TIP3      H2            -23.8634503135        0.5121985814      -38.2162598465  TIP3      7627            0.0000000000
     47798      7828  TIP3      OH2           -31.6063199969       -1.7887293491      -40.2214373932  TIP3      7628            0.0000000000
     47799      7828  TIP3      H1            -31.7527282556       -2.7511112750      -40.3006139748  TIP3      7628            0.0000000000
     47800      7828  TIP3      H2            -32.4849989215       -1.4806573815      -39.9169501990  TIP3      7628            0.0000000000
     47801      7829  TIP3      OH2           -26.6240420989       13.5895700464      -42.4730275985  TIP3      7629            0.0000000000
     47802      7829  TIP3      H1            -26.2075178428       12.8715723231      -42.9946899039  TIP3      7629            0.0000000000
     47803      7829  TIP3      H2            -26.2001154893       14.3781880468      -42.8770149309  TIP3      7629            0.0000000000
     47804      7830  TIP3      OH2           -25.4232993149       11.5121481127      -43.9521144811  TIP3      7630            0.0000000000
     47805      7830  TIP3      H1            -25.7122487164       10.8268163283      -44.5807005087  TIP3      7630            0.0000000000
     47806      7830  TIP3      H2            -25.3892462911       11.0104631434      -43.1196928709  TIP3      7630            0.0000000000
     47807      7831  TIP3      OH2           -23.8092159485       10.1172601102      -35.4782598891  TIP3      7631            0.0000000000
     47808      7831  TIP3      H1            -23.6582062160        9.4615625336      -36.1946892068  TIP3      7631            0.0000000000
     47809      7831  TIP3      H2            -23.5971716163       10.9571036829      -35.9245661963  TIP3      7631            0.0000000000
     47810      7832  TIP3      OH2           -29.3206424415        7.0356782675      -45.7152044397  TIP3      7632            0.0000000000
     47811      7832  TIP3      H1            -30.0145277278        7.6153085535      -46.0903792651  TIP3      7632            0.0000000000
     47812      7832  TIP3      H2            -28.6027152019        7.1075108445      -46.3738848379  TIP3      7632            0.0000000000
     47813      7833  TIP3      OH2           -29.2131888100        5.4953519227      -48.6756596721  TIP3      7633            0.0000000000
     47814      7833  TIP3      H1            -28.4938026097        5.5370560561      -48.0180121262  TIP3      7633            0.0000000000
     47815      7833  TIP3      H2            -28.8743933128        4.7993606633      -49.2670886362  TIP3      7633            0.0000000000
     47816      7834  TIP3      OH2           -21.9184349875        6.4273606058      -37.4358317408  TIP3      7634            0.0000000000
     47817      7834  TIP3      H1            -22.5737993704        7.1520386427      -37.3968414952  TIP3      7634            0.0000000000
     47818      7834  TIP3      H2            -21.4210127070        6.6611972404      -38.2407387717  TIP3      7634            0.0000000000
     47819      7835  TIP3      OH2           -25.8647224260        7.2253827317      -44.7739498920  TIP3      7635            0.0000000000
     47820      7835  TIP3      H1            -26.6119780623        7.4592803329      -44.1733525454  TIP3      7635            0.0000000000
     47821      7835  TIP3      H2            -25.3861311706        6.5468142101      -44.2664073363  TIP3      7635            0.0000000000
     47822      7836  TIP3      OH2           -25.9513902333        5.3672366701      -35.6481072218  TIP3      7636            0.0000000000
     47823      7836  TIP3      H1            -25.9086689713        6.2061783870      -35.1570975751  TIP3      7636            0.0000000000
     47824      7836  TIP3      H2            -26.5372920831        5.6798290015      -36.3689427662  TIP3      7636            0.0000000000
     47825      7837  TIP3      OH2           -34.2307612865        7.8826992799      -42.8652391462  TIP3      7637            0.0000000000
     47826      7837  TIP3      H1            -34.5712018917        7.4960998360      -43.7106451197  TIP3      7637            0.0000000000
     47827      7837  TIP3      H2            -33.6267257818        7.1794012843      -42.5381136021  TIP3      7637            0.0000000000
     47828      7838  TIP3      OH2           -32.9383804198       11.2552209254      -40.1918095749  TIP3      7638            0.0000000000
     47829      7838  TIP3      H1            -32.9345632337       10.7366780342      -41.0059146223  TIP3      7638            0.0000000000
     47830      7838  TIP3      H2            -32.1494203056       10.9027671166      -39.7384416712  TIP3      7638            0.0000000000
     47831      7839  TIP3      OH2           -33.9117329634        6.6101156541      -39.2238044635  TIP3      7639            0.0000000000
     47832      7839  TIP3      H1            -33.3637280881        6.7224684424      -40.0222085111  TIP3      7639            0.0000000000
     47833      7839  TIP3      H2            -33.5507831745        7.2845850598      -38.6066672163  TIP3      7639            0.0000000000
     47834      7840  TIP3      OH2           -27.5065015791       12.1983469184      -38.5082858963  TIP3      7640            0.0000000000
     47835      7840  TIP3      H1            -27.7852032567       12.8301979248      -37.8389920379  TIP3      7640            0.0000000000
     47836      7840  TIP3      H2            -27.7542945437       11.3426735719      -38.0862052156  TIP3      7640            0.0000000000
     47837      7841  TIP3      OH2           -32.9670377097       11.0519938338      -34.5208935226  TIP3      7641            0.0000000000
     47838      7841  TIP3      H1            -33.3779942544       11.7912939905      -34.0311057781  TIP3      7641            0.0000000000
     47839      7841  TIP3      H2            -33.6369540546       10.8503722620      -35.2165720269  TIP3      7641            0.0000000000
     47840      7842  TIP3      OH2           -27.0229730684        6.4247530707      -47.1150562772  TIP3      7642            0.0000000000
     47841      7842  TIP3      H1            -26.4453693948        6.5954455113      -46.3329847498  TIP3      7642            0.0000000000
     47842      7842  TIP3      H2            -26.5357168065        6.8965652144      -47.8345554735  TIP3      7642            0.0000000000
     47843      7843  TIP3      OH2           -35.9400962254        7.2961133225      -35.3848843902  TIP3      7643            0.0000000000
     47844      7843  TIP3      H1            -35.9606317343        7.9127048229      -34.6336921908  TIP3      7643            0.0000000000
     47845      7843  TIP3      H2            -36.9088236794        7.2377049658      -35.5619763492  TIP3      7643            0.0000000000
     47846      7844  TIP3      OH2           -29.2578079863       13.1472747437      -43.6730275827  TIP3      7644            0.0000000000
     47847      7844  TIP3      H1            -28.8394334208       13.4417814234      -42.8541834967  TIP3      7644            0.0000000000
     47848      7844  TIP3      H2            -29.8344842391       13.8881290749      -43.8873521641  TIP3      7644            0.0000000000
     47849      7845  TIP3      OH2           -34.7178853427       13.0726731586      -33.7702977133  TIP3      7645            0.0000000000
     47850      7845  TIP3      H1            -34.7765069925       12.9882299161      -34.7390459099  TIP3      7645            0.0000000000
     47851      7845  TIP3      H2            -35.6483487827       12.9639236681      -33.5061455763  TIP3      7645            0.0000000000
     47852      7846  TIP3      OH2           -23.2418244866       -1.8711367187      -47.2749213773  TIP3      7646            0.0000000000
     47853      7846  TIP3      H1            -24.1847033347       -1.7710348522      -46.9923283209  TIP3      7646            0.0000000000
     47854      7846  TIP3      H2            -23.0761154993       -0.9977567364      -47.6675029657  TIP3      7646            0.0000000000
     47855      7847  TIP3      OH2           -35.2748317809        6.9018525496      -45.2427863999  TIP3      7647            0.0000000000
     47856      7847  TIP3      H1            -35.5769092503        7.6680656031      -45.7711096724  TIP3      7647            0.0000000000
     47857      7847  TIP3      H2            -35.9267348632        6.2353240852      -45.4676221944  TIP3      7647            0.0000000000
     47858      7848  TIP3      OH2           -22.1786579651       12.5262556371      -48.7504434519  TIP3      7648            0.0000000000
     47859      7848  TIP3      H1            -22.0140037463       13.4802500029      -48.6694582225  TIP3      7648            0.0000000000
     47860      7848  TIP3      H2            -21.2872400613       12.1531077256      -48.8600584141  TIP3      7648            0.0000000000
     47861      7849  TIP3      OH2           -39.0155777652        9.3136341789      -36.4730289609  TIP3      7649            0.0000000000
     47862      7849  TIP3      H1            -39.6215659848        9.3225642798      -37.2319659609  TIP3      7649            0.0000000000
     47863      7849  TIP3      H2            -39.1443909831        8.4114810616      -36.1664236904  TIP3      7649            0.0000000000
     47864      7850  TIP3      OH2           -38.9488932105       12.6832571840      -39.8391536627  TIP3      7650            0.0000000000
     47865      7850  TIP3      H1            -38.3170109430       12.0182792777      -39.5429914591  TIP3      7650            0.0000000000
     47866      7850  TIP3      H2            -39.4596967080       12.8353921853      -39.0231630973  TIP3      7650            0.0000000000
     47867      7851  TIP3      OH2           -21.1876872731       12.7677330713      -33.8937753977  TIP3      7651            0.0000000000
     47868      7851  TIP3      H1            -21.3060058196       11.8066260808      -33.9236003387  TIP3      7651            0.0000000000
     47869      7851  TIP3      H2            -22.0617547025       13.0134912540      -33.5087338118  TIP3      7651            0.0000000000
     47870      7852  TIP3      OH2           -30.2320312800       12.3024504208      -35.0350092329  TIP3      7652            0.0000000000
     47871      7852  TIP3      H1            -30.1794590691       13.1436499688      -34.5263528761  TIP3      7652            0.0000000000
     47872      7852  TIP3      H2            -31.1048724948       11.9458062603      -34.7842715196  TIP3      7652            0.0000000000
     47873      7853  TIP3      OH2           -29.8101875319       16.0478597379      -45.2419042637  TIP3      7653            0.0000000000
     47874      7853  TIP3      H1            -29.8631268492       15.9763878760      -46.2084952045  TIP3      7653            0.0000000000
     47875      7853  TIP3      H2            -29.7694408292       17.0059370305      -45.0744296921  TIP3      7653            0.0000000000
     47876      7854  TIP3      OH2           -36.1606711506       14.9411268731      -43.4163903107  TIP3      7654            0.0000000000
     47877      7854  TIP3      H1            -35.9968225482       14.5157553773      -42.5481608795  TIP3      7654            0.0000000000
     47878      7854  TIP3      H2            -36.9908979303       14.5109660302      -43.6670612621  TIP3      7654            0.0000000000
     47879      7855  TIP3      OH2           -26.8477287745       15.3277215273      -48.2105641260  TIP3      7655            0.0000000000
     47880      7855  TIP3      H1            -26.3553826095       14.5902485273      -48.6591692891  TIP3      7655            0.0000000000
     47881      7855  TIP3      H2            -26.7029000648       15.0222043450      -47.3003356380  TIP3      7655            0.0000000000
     47882      7856  TIP3      OH2           -27.0565322333       15.2149715466      -45.4266538710  TIP3      7656            0.0000000000
     47883      7856  TIP3      H1            -28.0205087690       15.2607248401      -45.2893085211  TIP3      7656            0.0000000000
     47884      7856  TIP3      H2            -26.8138553287       14.4415436352      -44.8993088373  TIP3      7656            0.0000000000
     47885      7857  TIP3      OH2           -24.0366284449        4.2308050195      -33.4255631260  TIP3      7657            0.0000000000
     47886      7857  TIP3      H1            -24.5012031708        4.6898962782      -34.1442322954  TIP3      7657            0.0000000000
     47887      7857  TIP3      H2            -24.0575617313        3.3127374916      -33.7324213985  TIP3      7657            0.0000000000
     47888      7858  TIP3      OH2           -36.9243908895       10.6778718687      -35.4262300531  TIP3      7658            0.0000000000
     47889      7858  TIP3      H1            -36.7297491920       10.2811656618      -34.5529479211  TIP3      7658            0.0000000000
     47890      7858  TIP3      H2            -37.7888950218       10.2608586967      -35.6556197637  TIP3      7658            0.0000000000
     47891      7859  TIP3      OH2           -34.2078075699       -0.8718002906      -39.4794193042  TIP3      7659            0.0000000000
     47892      7859  TIP3      H1            -35.1165990432       -1.0076688555      -39.8366868233  TIP3      7659            0.0000000000
     47893      7859  TIP3      H2            -34.3529980916       -0.0490276824      -38.9857676723  TIP3      7659            0.0000000000
     47894      7860  TIP3      OH2           -29.5812518331       -1.1676660124      -36.0796809960  TIP3      7660            0.0000000000
     47895      7860  TIP3      H1            -29.1847353829       -1.6533343881      -35.3311205341  TIP3      7660            0.0000000000
     47896      7860  TIP3      H2            -30.5484053330       -1.3520823964      -35.9692581084  TIP3      7660            0.0000000000
     47897      7861  TIP3      OH2           -26.3279205043        2.6170368998      -35.2376953505  TIP3      7661            0.0000000000
     47898      7861  TIP3      H1            -26.8148123754        2.4278134290      -34.4068800046  TIP3      7661            0.0000000000
     47899      7861  TIP3      H2            -26.4413702400        3.5658312438      -35.4335674888  TIP3      7661            0.0000000000
     47900      7862  TIP3      OH2           -25.2987962104        7.3401942135      -48.9150705026  TIP3      7662            0.0000000000
     47901      7862  TIP3      H1            -25.4392121361        7.2025670378      -49.8658277073  TIP3      7662            0.0000000000
     47902      7862  TIP3      H2            -24.5197398546        7.9125805237      -49.0678189234  TIP3      7662            0.0000000000
     47903      7863  TIP3      OH2           -29.9164762953        1.3812330078      -48.7740738858  TIP3      7663            0.0000000000
     47904      7863  TIP3      H1            -30.2508817928        1.3037937260      -47.8570895046  TIP3      7663            0.0000000000
     47905      7863  TIP3      H2            -30.2119991974        0.5219714489      -49.0992507215  TIP3      7663            0.0000000000
     47906      7864  TIP3      OH2           -34.0779779281        4.0812969968      -38.1994520865  TIP3      7664            0.0000000000
     47907      7864  TIP3      H1            -34.8402157017        4.0712004262      -37.5878147044  TIP3      7664            0.0000000000
     47908      7864  TIP3      H2            -34.1644430335        4.9856732875      -38.5832098958  TIP3      7664            0.0000000000
     47909      7865  TIP3      OH2           -34.1523218166        4.2015995128      -43.3526118825  TIP3      7665            0.0000000000
     47910      7865  TIP3      H1            -35.0910662103        3.9620972149      -43.4906557247  TIP3      7665            0.0000000000
     47911      7865  TIP3      H2            -33.7820901506        3.9179331461      -44.2127760975  TIP3      7665            0.0000000000
     47912      7866  TIP3      OH2           -28.6453010922        4.7107991611      -44.6043412196  TIP3      7666            0.0000000000
     47913      7866  TIP3      H1            -29.0246283502        5.5453357974      -44.9590565319  TIP3      7666            0.0000000000
     47914      7866  TIP3      H2            -27.9370749700        4.5383336146      -45.2501078300  TIP3      7666            0.0000000000
     47915      7867  TIP3      OH2           -29.5624306938        4.8364371105      -33.1508349921  TIP3      7667            0.0000000000
     47916      7867  TIP3      H1            -30.1386211787        4.3217566411      -32.5557753033  TIP3      7667            0.0000000000
     47917      7867  TIP3      H2            -28.7248642052        4.8821836109      -32.6343886396  TIP3      7667            0.0000000000
     47918      7868  TIP3      OH2           -27.5982685304        4.1945176637      -41.7376251347  TIP3      7668            0.0000000000
     47919      7868  TIP3      H1            -27.8880633237        4.7629305670      -42.4720360403  TIP3      7668            0.0000000000
     47920      7868  TIP3      H2            -27.5081069322        3.3493209808      -42.2202413919  TIP3      7668            0.0000000000
     47921      7869  TIP3      OH2           -36.4442308669        4.3259372489      -36.5388752702  TIP3      7669            0.0000000000
     47922      7869  TIP3      H1            -36.4547858498        4.7630605177      -35.6709508928  TIP3      7669            0.0000000000
     47923      7869  TIP3      H2            -36.9432374537        3.5151350925      -36.3428701138  TIP3      7669            0.0000000000
     47924      7870  TIP3      OH2           -33.1021628262        1.6904203042      -49.6869212754  TIP3      7670            0.0000000000
     47925      7870  TIP3      H1            -33.5188153619        1.3604431021      -48.8672668678  TIP3      7670            0.0000000000
     47926      7870  TIP3      H2            -33.7995643005        2.1647083264      -50.1546920365  TIP3      7670            0.0000000000
     47927      7871  TIP3      OH2           -39.8144571036        1.4343196535      -42.6008038076  TIP3      7671            0.0000000000
     47928      7871  TIP3      H1            -39.1569849732        1.3523319049      -41.8823689941  TIP3      7671            0.0000000000
     47929      7871  TIP3      H2            -39.3726571750        0.9984586399      -43.3393689348  TIP3      7671            0.0000000000
     47930      7872  TIP3      OH2           -38.5504547776        2.2081856701      -47.2260798161  TIP3      7672            0.0000000000
     47931      7872  TIP3      H1            -38.0270892334        2.8385644406      -47.7522083850  TIP3      7672            0.0000000000
     47932      7872  TIP3      H2            -39.2536410873        2.7831293113      -46.9094521088  TIP3      7672            0.0000000000
     47933      7873  TIP3      OH2           -28.3969443553        5.7868512854      -37.1831170494  TIP3      7673            0.0000000000
     47934      7873  TIP3      H1            -28.0196009520        5.1123011600      -37.7855633639  TIP3      7673            0.0000000000
     47935      7873  TIP3      H2            -28.8798156258        5.2507259423      -36.5379220229  TIP3      7673            0.0000000000
     47936      7874  TIP3      OH2           -31.6026555016        1.7663820116      -42.3460481629  TIP3      7674            0.0000000000
     47937      7874  TIP3      H1            -32.5369849077        1.7635068746      -42.0575976010  TIP3      7674            0.0000000000
     47938      7874  TIP3      H2            -31.1208444534        1.5872734285      -41.5232938149  TIP3      7674            0.0000000000
     47939      7875  TIP3      OH2           -36.7886909927        3.3081690121      -43.4785896458  TIP3      7675            0.0000000000
     47940      7875  TIP3      H1            -37.6694839649        3.4658247179      -43.8647435674  TIP3      7675            0.0000000000
     47941      7875  TIP3      H2            -36.5368779682        2.4535203421      -43.8692214995  TIP3      7675            0.0000000000
     47942      7876  TIP3      OH2           -33.1463761900        3.3608325762      -45.8383811662  TIP3      7676            0.0000000000
     47943      7876  TIP3      H1            -32.1905251180        3.4647263166      -45.6654779394  TIP3      7676            0.0000000000
     47944      7876  TIP3      H2            -33.3811993053        4.0261487936      -46.5158916888  TIP3      7676            0.0000000000
     47945      7877  TIP3      OH2           -27.2011106615        1.0183968067      -39.1120849397  TIP3      7677            0.0000000000
     47946      7877  TIP3      H1            -27.8863088619        1.0285804636      -38.4202655468  TIP3      7677            0.0000000000
     47947      7877  TIP3      H2            -27.6960619984        0.7322750408      -39.8953446588  TIP3      7677            0.0000000000
     47948      7878  TIP3      OH2           -34.3988897688        4.5431179773      -48.2330431353  TIP3      7678            0.0000000000
     47949      7878  TIP3      H1            -35.0028025248        4.2178819568      -48.9051067321  TIP3      7678            0.0000000000
     47950      7878  TIP3      H2            -33.6040653623        4.7564811168      -48.7405891610  TIP3      7678            0.0000000000
     47951      7879  TIP3      OH2           -23.9894846480       16.7043455273      -32.7796876235  TIP3      7679            0.0000000000
     47952      7879  TIP3      H1            -23.6564382083       16.9095995682      -33.6870871274  TIP3      7679            0.0000000000
     47953      7879  TIP3      H2            -23.1830789774       16.8631411036      -32.2438316976  TIP3      7679            0.0000000000
     47954      7880  TIP3      OH2           -36.3081952586        9.1058394363      -33.1961100689  TIP3      7680            0.0000000000
     47955      7880  TIP3      H1            -35.5710967300        9.3431676668      -32.6025263208  TIP3      7680            0.0000000000
     47956      7880  TIP3      H2            -37.0744286500        9.1874725739      -32.5956916110  TIP3      7680            0.0000000000
     47957      7881  TIP3      OH2           -30.3265840732        4.5188735460      -40.4690978499  TIP3      7681            0.0000000000
     47958      7881  TIP3      H1            -29.7246774039        3.9857047362      -41.0011630666  TIP3      7681            0.0000000000
     47959      7881  TIP3      H2            -30.4687112128        3.9682545362      -39.6903672863  TIP3      7681            0.0000000000
     47960      7882  TIP3      OH2           -35.3145395747        0.6650534438      -44.0156364055  TIP3      7682            0.0000000000
     47961      7882  TIP3      H1            -35.6293170279       -0.2588991480      -44.0307938260  TIP3      7682            0.0000000000
     47962      7882  TIP3      H2            -34.5194257037        0.5827885461      -44.5528678710  TIP3      7682            0.0000000000
     47963      7883  TIP3      OH2           -31.6903084610        2.8273075826      -38.0206205120  TIP3      7683            0.0000000000
     47964      7883  TIP3      H1            -32.5117319712        3.3633276341      -37.9797069195  TIP3      7683            0.0000000000
     47965      7883  TIP3      H2            -31.1234034418        3.2323580179      -37.3450752059  TIP3      7683            0.0000000000
     47966      7884  TIP3      OH2           -31.0844213894        9.0602806606      -46.3327590037  TIP3      7684            0.0000000000
     47967      7884  TIP3      H1            -31.8901138801        8.6079963076      -46.6617049962  TIP3      7684            0.0000000000
     47968      7884  TIP3      H2            -31.3099831275        9.1981779576      -45.3901702861  TIP3      7684            0.0000000000
     47969      7885  TIP3      OH2           -23.9061812759        8.2701766147      -37.5416572802  TIP3      7685            0.0000000000
     47970      7885  TIP3      H1            -23.3447849304        8.7543127330      -38.1747655790  TIP3      7685            0.0000000000
     47971      7885  TIP3      H2            -24.7669347248        8.3145363349      -38.0047698034  TIP3      7685            0.0000000000
     47972      7886  TIP3      OH2           -27.3110149766        1.9050106418      -47.9977350283  TIP3      7686            0.0000000000
     47973      7886  TIP3      H1            -28.2260201466        2.0575809903      -48.2740943480  TIP3      7686            0.0000000000
     47974      7886  TIP3      H2            -26.9558531983        2.8010920466      -47.8356336009  TIP3      7686            0.0000000000
     47975      7887  TIP3      OH2           -29.6056863369        9.3374704394      -35.1073106947  TIP3      7687            0.0000000000
     47976      7887  TIP3      H1            -29.9502365649        8.9181875148      -34.3119587182  TIP3      7687            0.0000000000
     47977      7887  TIP3      H2            -29.8579597653       10.2625830748      -34.9992111502  TIP3      7687            0.0000000000
     47978      7888  TIP3      OH2           -26.5302338095        3.8462535002      -46.4877382975  TIP3      7688            0.0000000000
     47979      7888  TIP3      H1            -25.6403406507        3.6574759705      -46.1182052802  TIP3      7688            0.0000000000
     47980      7888  TIP3      H2            -26.4152567482        4.6339418156      -47.0418881494  TIP3      7688            0.0000000000
     47981      7889  TIP3      OH2           -35.9787124455        8.4711443807      -40.5410682423  TIP3      7689            0.0000000000
     47982      7889  TIP3      H1            -35.3065012226        8.3864557934      -41.2408270234  TIP3      7689            0.0000000000
     47983      7889  TIP3      H2            -35.9198486563        7.6042941891      -40.1013266546  TIP3      7689            0.0000000000
     47984      7890  TIP3      OH2           -28.9543306673       10.5401312321      -47.2964262253  TIP3      7690            0.0000000000
     47985      7890  TIP3      H1            -29.3286397296       11.3818289762      -46.9660125018  TIP3      7690            0.0000000000
     47986      7890  TIP3      H2            -29.7131706294        9.9396472607      -47.1293928430  TIP3      7690            0.0000000000
     47987      7891  TIP3      OH2           -38.4585437035        6.4856198342      -35.3909621135  TIP3      7691            0.0000000000
     47988      7891  TIP3      H1            -38.6648875474        6.4081813027      -34.4344388226  TIP3      7691            0.0000000000
     47989      7891  TIP3      H2            -39.3902456332        6.3937974245      -35.6933350266  TIP3      7691            0.0000000000
     47990      7892  TIP3      OH2           -31.9850703019        6.3922917105      -33.0918325097  TIP3      7692            0.0000000000
     47991      7892  TIP3      H1            -32.3143016685        6.1506226511      -33.9730119932  TIP3      7692            0.0000000000
     47992      7892  TIP3      H2            -31.0439471008        6.1542358391      -33.1195764556  TIP3      7692            0.0000000000
     47993      7893  TIP3      OH2           -27.2876679151       11.7914306804      -35.1440540647  TIP3      7693            0.0000000000
     47994      7893  TIP3      H1            -28.2188794454       11.9407462458      -35.3818898908  TIP3      7693            0.0000000000
     47995      7893  TIP3      H2            -27.3330937389       12.0611961628      -34.2081164785  TIP3      7693            0.0000000000
     47996      7894  TIP3      OH2           -21.5968695081        3.9403326386      -46.7279355289  TIP3      7694            0.0000000000
     47997      7894  TIP3      H1            -22.1781839241        3.6722272945      -47.4742516562  TIP3      7694            0.0000000000
     47998      7894  TIP3      H2            -21.5361881495        4.8847168911      -46.9879725124  TIP3      7694            0.0000000000
     47999      7895  TIP3      OH2           -21.6453044203        9.8097835182      -33.9566520069  TIP3      7695            0.0000000000
     48000      7895  TIP3      H1            -22.5363488820       10.0239732871      -34.3243313995  TIP3      7695            0.0000000000
     48001      7895  TIP3      H2            -21.0954578140        9.7522611880      -34.7691291015  TIP3      7695            0.0000000000
     48002      7896  TIP3      OH2           -23.3229784985       12.7438598493      -46.3619736059  TIP3      7696            0.0000000000
     48003      7896  TIP3      H1            -23.7220295981       11.9214019945      -46.0639102425  TIP3      7696            0.0000000000
     48004      7896  TIP3      H2            -23.0492007913       12.5442252238      -47.2770778478  TIP3      7696            0.0000000000
     48005      7897  TIP3      OH2           -26.1303428217        7.5850065403      -39.2615062904  TIP3      7697            0.0000000000
     48006      7897  TIP3      H1            -27.0708362180        7.3790921891      -39.3761471724  TIP3      7697            0.0000000000
     48007      7897  TIP3      H2            -25.6989061464        6.8267064306      -39.6987040467  TIP3      7697            0.0000000000
     48008      7898  TIP3      OH2           -33.6227662807       11.9187028174      -43.1437428787  TIP3      7698            0.0000000000
     48009      7898  TIP3      H1            -33.1200756125       12.7202871285      -43.3622620168  TIP3      7698            0.0000000000
     48010      7898  TIP3      H2            -34.5047788026       12.1538871356      -43.4634879608  TIP3      7698            0.0000000000
     48011      7899  TIP3      OH2           -37.7904835873        6.6408197498      -48.3676299827  TIP3      7699            0.0000000000
     48012      7899  TIP3      H1            -37.2226562701        7.4048719498      -48.1410029329  TIP3      7699            0.0000000000
     48013      7899  TIP3      H2            -38.6730666933        7.0536289765      -48.3291588536  TIP3      7699            0.0000000000
     48014      7900  TIP3      OH2           -32.1893019169        9.5771894826      -43.6315068986  TIP3      7700            0.0000000000
     48015      7900  TIP3      H1            -32.5132231130       10.4975554841      -43.5580273485  TIP3      7700            0.0000000000
     48016      7900  TIP3      H2            -32.9137800572        9.0863807782      -43.1942029515  TIP3      7700            0.0000000000
     48017      7901  TIP3      OH2           -31.7556613641       13.7688266411      -37.2269591838  TIP3      7701            0.0000000000
     48018      7901  TIP3      H1            -31.2940969008       14.5710841882      -37.5207638788  TIP3      7701            0.0000000000
     48019      7901  TIP3      H2            -31.1273153765       13.4220993998      -36.5665580789  TIP3      7701            0.0000000000
     48020      7902  TIP3      OH2           -33.5147574711       14.5601283599      -44.0586500120  TIP3      7702            0.0000000000
     48021      7902  TIP3      H1            -34.4815373370       14.7036335096      -43.9634837568  TIP3      7702            0.0000000000
     48022      7902  TIP3      H2            -33.1514626226       15.4130511215      -43.7545014706  TIP3      7702            0.0000000000
     48023      7903  TIP3      OH2           -28.2276093267        9.7648074149      -37.6191090487  TIP3      7703            0.0000000000
     48024      7903  TIP3      H1            -28.5462083316        9.5751185508      -36.7113235664  TIP3      7703            0.0000000000
     48025      7903  TIP3      H2            -27.5803639718        9.0591868515      -37.7846583698  TIP3      7703            0.0000000000
     48026      7904  TIP3      OH2           -25.9720875125       10.7993287139      -48.4260396362  TIP3      7704            0.0000000000
     48027      7904  TIP3      H1            -25.6357250703       10.3041430955      -47.6613924075  TIP3      7704            0.0000000000
     48028      7904  TIP3      H2            -26.9141090126       10.6099709073      -48.3484643447  TIP3      7704            0.0000000000
     48029      7905  TIP3      OH2           -25.4178544154       14.3774121373      -35.1096140834  TIP3      7705            0.0000000000
     48030      7905  TIP3      H1            -26.0857342116       13.8465115760      -35.5929991913  TIP3      7705            0.0000000000
     48031      7905  TIP3      H2            -25.2201371912       15.0353667743      -35.8093860290  TIP3      7705            0.0000000000
     48032      7906  TIP3      OH2           -21.4168451230       15.2419822336      -48.3072743297  TIP3      7706            0.0000000000
     48033      7906  TIP3      H1            -20.7097118802       15.8932590930      -48.4544014561  TIP3      7706            0.0000000000
     48034      7906  TIP3      H2            -22.1377712553       15.8251790082      -47.9696629540  TIP3      7706            0.0000000000
     48035      7907  TIP3      OH2           -37.3204376082        1.6411740940      -35.7331057524  TIP3      7707            0.0000000000
     48036      7907  TIP3      H1            -38.2286083841        1.9744979167      -35.7369445756  TIP3      7707            0.0000000000
     48037      7907  TIP3      H2            -37.4338929778        0.7670242128      -35.3242274967  TIP3      7707            0.0000000000
     48038      7908  TIP3      OH2           -25.0992691561        9.4817981346      -46.2738391126  TIP3      7708            0.0000000000
     48039      7908  TIP3      H1            -25.3384445617        8.6678036616      -45.7910643422  TIP3      7708            0.0000000000
     48040      7908  TIP3      H2            -24.1473757538        9.5175890850      -46.1053113688  TIP3      7708            0.0000000000
     48041      7909  TIP3      OH2           -37.7385695359       13.3809779002      -37.3074150987  TIP3      7709            0.0000000000
     48042      7909  TIP3      H1            -37.4226664097       12.4703057983      -37.3082329246  TIP3      7709            0.0000000000
     48043      7909  TIP3      H2            -37.4868132187       13.6724016993      -36.4298610744  TIP3      7709            0.0000000000
     48044      7910  TIP3      OH2           -32.9716065498       11.4584108687      -47.5911991174  TIP3      7710            0.0000000000
     48045      7910  TIP3      H1            -32.7425455086       10.9141242905      -46.8334577384  TIP3      7710            0.0000000000
     48046      7910  TIP3      H2            -32.9210337482       12.3753827721      -47.2524259223  TIP3      7710            0.0000000000
     48047      7911  TIP3      OH2           -36.5179351420        8.6802804879      -47.1701726323  TIP3      7711            0.0000000000
     48048      7911  TIP3      H1            -37.1703022943        9.0680642946      -46.5446756357  TIP3      7711            0.0000000000
     48049      7911  TIP3      H2            -35.9559181506        9.4558387029      -47.3564044076  TIP3      7711            0.0000000000
     48050      7912  TIP3      OH2           -28.6793544891        1.4098931260      -36.6745176045  TIP3      7712            0.0000000000
     48051      7912  TIP3      H1            -27.8524753983        1.4062639022      -36.1766999516  TIP3      7712            0.0000000000
     48052      7912  TIP3      H2            -28.9803924140        0.4805738268      -36.5871206799  TIP3      7712            0.0000000000
     48053      7913  TIP3      OH2           -27.8934814418        0.9388000584      -45.6385689879  TIP3      7713            0.0000000000
     48054      7913  TIP3      H1            -27.6448763075        1.3917870247      -46.4740707364  TIP3      7713            0.0000000000
     48055      7913  TIP3      H2            -27.2858427427        1.3813361197      -45.0387742560  TIP3      7713            0.0000000000
     48056      7914  TIP3      OH2           -30.1725101597       13.1035826325      -46.8955981193  TIP3      7714            0.0000000000
     48057      7914  TIP3      H1            -30.9991436089       13.6090678826      -46.7935508409  TIP3      7714            0.0000000000
     48058      7914  TIP3      H2            -29.6546456508       13.6563549881      -47.4894864918  TIP3      7714            0.0000000000
     48059      7915  TIP3      OH2           -30.6305363138        2.6862461704      -44.8623785878  TIP3      7715            0.0000000000
     48060      7915  TIP3      H1            -29.8559965750        3.2820148290      -44.8306878223  TIP3      7715            0.0000000000
     48061      7915  TIP3      H2            -30.8975552882        2.5727367928      -43.9314023790  TIP3      7715            0.0000000000
     48062      7916  TIP3      OH2           -29.9923332171        3.8389031563      -35.9159712231  TIP3      7716            0.0000000000
     48063      7916  TIP3      H1            -29.9441591967        4.4278648722      -35.1309595996  TIP3      7716            0.0000000000
     48064      7916  TIP3      H2            -29.3348055969        3.1069800730      -35.8487753109  TIP3      7716            0.0000000000
     48065      7917  TIP3      OH2           -29.8004299589       -0.2475985898      -43.9856253804  TIP3      7717            0.0000000000
     48066      7917  TIP3      H1            -30.1136430065        0.4106573056      -43.3435839583  TIP3      7717            0.0000000000
     48067      7917  TIP3      H2            -29.0967177886        0.2917904144      -44.4268655673  TIP3      7717            0.0000000000
     48068      7918  TIP3      OH2           -32.8086502597       14.1549048065      -46.8130028950  TIP3      7718            0.0000000000
     48069      7918  TIP3      H1            -32.6287998251       14.9689217304      -47.3373701837  TIP3      7718            0.0000000000
     48070      7918  TIP3      H2            -33.0645837731       14.5108143077      -45.9403634193  TIP3      7718            0.0000000000
     48071      7919  TIP3      OH2           -34.1116866974        0.8807554106      -47.2546072241  TIP3      7719            0.0000000000
     48072      7919  TIP3      H1            -34.1738992441        1.7632081176      -46.8378298057  TIP3      7719            0.0000000000
     48073      7919  TIP3      H2            -33.2152917201        0.6233677208      -46.9643625546  TIP3      7719            0.0000000000
     48074      7920  TIP3      OH2           -23.9054754760        1.5840110451      -34.8319311632  TIP3      7720            0.0000000000
     48075      7920  TIP3      H1            -24.8268411338        1.8991641278      -34.9659486558  TIP3      7720            0.0000000000
     48076      7920  TIP3      H2            -23.6005962856        1.5694018646      -35.7542204636  TIP3      7720            0.0000000000
     48077      7921  TIP3      OH2           -25.2907858443        5.3773765052      -40.8177768708  TIP3      7721            0.0000000000
     48078      7921  TIP3      H1            -26.1145606399        4.9298229001      -41.0989560930  TIP3      7721            0.0000000000
     48079      7921  TIP3      H2            -24.8113743270        4.6881276505      -40.3066384497  TIP3      7721            0.0000000000
     48080      7922  TIP3      OH2           -35.7939667468       11.2631485418      -48.1066657984  TIP3      7722            0.0000000000
     48081      7922  TIP3      H1            -35.1728559745       11.9755344245      -47.9254999868  TIP3      7722            0.0000000000
     48082      7922  TIP3      H2            -35.3974674667       10.8886478498      -48.9200375514  TIP3      7722            0.0000000000
     48083      7923  TIP3      OH2           -37.5363506495        3.9822212070      -49.0077827733  TIP3      7723            0.0000000000
     48084      7923  TIP3      H1            -37.5344276067        4.9507272587      -48.8587962448  TIP3      7723            0.0000000000
     48085      7923  TIP3      H2            -38.4067749349        3.7940777682      -49.3789951050  TIP3      7723            0.0000000000
     48086      7924  TIP3      OH2           -24.2306798345       14.6449206269      -39.1382517674  TIP3      7724            0.0000000000
     48087      7924  TIP3      H1            -24.3180054339       15.3144141941      -39.8431444753  TIP3      7724            0.0000000000
     48088      7924  TIP3      H2            -23.2633502400       14.6888908325      -38.9757708470  TIP3      7724            0.0000000000
     48089      7925  TIP3      OH2           -36.6879707181       -1.2506407208      -40.3504779325  TIP3      7725            0.0000000000
     48090      7925  TIP3      H1            -36.9295433982       -1.2378483423      -41.3022950763  TIP3      7725            0.0000000000
     48091      7925  TIP3      H2            -37.1663460317       -2.0683423968      -40.0874710514  TIP3      7725            0.0000000000
     48092      7926  TIP3      OH2           -37.7579386792       12.6784476646      -44.1930440973  TIP3      7726            0.0000000000
     48093      7926  TIP3      H1            -38.6111079535       13.1295656394      -44.2425869971  TIP3      7726            0.0000000000
     48094      7926  TIP3      H2            -37.2680041347       13.1535818791      -44.8726909496  TIP3      7726            0.0000000000
     48095      7927  TIP3      OH2           -38.5437596321       15.3532074965      -32.8985429118  TIP3      7727            0.0000000000
     48096      7927  TIP3      H1            -37.9496670889       15.1149569067      -32.1657496106  TIP3      7727            0.0000000000
     48097      7927  TIP3      H2            -38.9885186218       14.5188135099      -33.0932534486  TIP3      7727            0.0000000000
     48098      7928  TIP3      OH2           -33.9023195604       14.2554997491      -31.3019251043  TIP3      7728            0.0000000000
     48099      7928  TIP3      H1            -33.1598493825       13.7407147651      -30.9671316624  TIP3      7728            0.0000000000
     48100      7928  TIP3      H2            -33.9426181343       13.9593683438      -32.2328920280  TIP3      7728            0.0000000000
     48101      7929  TIP3      OH2           -29.8442544589       13.7004156982      -49.9801067023  TIP3      7729            0.0000000000
     48102      7929  TIP3      H1            -30.4649308255       13.0496782072      -49.6374274469  TIP3      7729            0.0000000000
     48103      7929  TIP3      H2            -29.0489837996       13.1696062014      -50.1148943455  TIP3      7729            0.0000000000
     48104      7930  TIP3      OH2           -27.3955839334       12.6265782474      -32.5557101135  TIP3      7730            0.0000000000
     48105      7930  TIP3      H1            -27.7112757695       11.7393579233      -32.2810533572  TIP3      7730            0.0000000000
     48106      7930  TIP3      H2            -26.6257102023       12.7455195301      -31.9660101980  TIP3      7730            0.0000000000
     48107      7931  TIP3      OH2           -25.6037073796       13.3926193970      -49.3066358094  TIP3      7731            0.0000000000
     48108      7931  TIP3      H1            -25.0446239519       12.6697024763      -48.9773505184  TIP3      7731            0.0000000000
     48109      7931  TIP3      H2            -24.9612426006       13.8408765324      -49.9300204260  TIP3      7731            0.0000000000
     48110      7932  TIP3      OH2           -38.5897996596        9.0399333099      -31.8240472349  TIP3      7732            0.0000000000
     48111      7932  TIP3      H1            -38.4508080817        8.1446249812      -32.1940561539  TIP3      7732            0.0000000000
     48112      7932  TIP3      H2            -39.0730631369        9.4624810240      -32.5418116223  TIP3      7732            0.0000000000
     48113      7933  TIP3      OH2           -34.2300428657        9.3956471293      -49.8007111365  TIP3      7733            0.0000000000
     48114      7933  TIP3      H1            -34.1523538799        8.6250572699      -49.2254187341  TIP3      7733            0.0000000000
     48115      7933  TIP3      H2            -33.5543951314        9.2933218893      -50.4803685426  TIP3      7733            0.0000000000
     48116      7934  TIP3      OH2           -31.9555193616        9.0959985679      -32.5346677783  TIP3      7734            0.0000000000
     48117      7934  TIP3      H1            -32.2943437907        9.4063380349      -33.3985978017  TIP3      7734            0.0000000000
     48118      7934  TIP3      H2            -31.8848655445        8.1222252722      -32.6358026288  TIP3      7734            0.0000000000
     48119      7935  TIP3      OH2           -26.2615830169        8.9421550992      -35.1427600541  TIP3      7735            0.0000000000
     48120      7935  TIP3      H1            -25.4711459022        9.5236662733      -35.2015154262  TIP3      7735            0.0000000000
     48121      7935  TIP3      H2            -26.9572781706        9.6145958267      -35.1066423458  TIP3      7735            0.0000000000
     48122      7936  TIP3      OH2           -37.7929082683        6.3391665896      -32.5573849076  TIP3      7736            0.0000000000
     48123      7936  TIP3      H1            -37.3345864109        5.4904575271      -32.6528199744  TIP3      7736            0.0000000000
     48124      7936  TIP3      H2            -37.9905140713        6.3122429040      -31.6082953406  TIP3      7736            0.0000000000
     48125      7937  TIP3      OH2           -33.1376398179        7.4449437707      -47.4948511111  TIP3      7737            0.0000000000
     48126      7937  TIP3      H1            -33.6087763250        6.9523970665      -46.8016134229  TIP3      7737            0.0000000000
     48127      7937  TIP3      H2            -32.7896487968        6.7255560227      -48.0669816565  TIP3      7737            0.0000000000
     48128      7938  TIP3      OH2           -33.8285603785        5.2811897287      -35.1678948627  TIP3      7738            0.0000000000
     48129      7938  TIP3      H1            -34.4806308459        5.9693978390      -34.9276236721  TIP3      7738            0.0000000000
     48130      7938  TIP3      H2            -33.4768573254        5.6485282204      -35.9997642616  TIP3      7738            0.0000000000
     48131      7939  TIP3      OH2           -31.9411012919        5.6803375813      -49.1649392376  TIP3      7739            0.0000000000
     48132      7939  TIP3      H1            -32.1713558516        5.5480116845      -50.0997142745  TIP3      7739            0.0000000000
     48133      7939  TIP3      H2            -30.9660270059        5.7526499709      -49.1400904540  TIP3      7739            0.0000000000
     48134      7940  TIP3      OH2           -28.7671304621        7.8120148670      -31.8810022159  TIP3      7740            0.0000000000
     48135      7940  TIP3      H1            -27.8020642107        7.8651979831      -31.9484766209  TIP3      7740            0.0000000000
     48136      7940  TIP3      H2            -28.9253542311        7.0826511156      -31.2629444697  TIP3      7740            0.0000000000
     48137      7941  TIP3      OH2           -22.9316833260        7.7356363019       50.2223745929  TIP3      7741            0.0000000000
     48138      7941  TIP3      H1            -22.8729186846        7.5074548762       49.2983639733  TIP3      7741            0.0000000000
     48139      7941  TIP3      H2            -22.7254184485        8.7021469704       50.1356799655  TIP3      7741            0.0000000000
     48140      7942  TIP3      OH2           -33.2704260019        2.6823862065      -34.1546655600  TIP3      7742            0.0000000000
     48141      7942  TIP3      H1            -33.3842419782        1.9396206405      -34.7866564600  TIP3      7742            0.0000000000
     48142      7942  TIP3      H2            -33.5684952338        3.4607122775      -34.6767365194  TIP3      7742            0.0000000000
     48143      7943  TIP3      OH2           -33.0323574676        1.0551383526      -36.5581998735  TIP3      7743            0.0000000000
     48144      7943  TIP3      H1            -32.5382494218        1.4936286920      -37.2946915682  TIP3      7743            0.0000000000
     48145      7943  TIP3      H2            -33.9256951200        0.9454732225      -36.9694879849  TIP3      7743            0.0000000000
     48146      7944  TIP3      OH2           -31.4789007869        6.5154248640      -36.3259332718  TIP3      7744            0.0000000000
     48147      7944  TIP3      H1            -30.7441996029        6.3720052716      -36.9282236573  TIP3      7744            0.0000000000
     48148      7944  TIP3      H2            -31.8711059971        7.3430233660      -36.6584120763  TIP3      7744            0.0000000000
     48149      7945  TIP3      OH2           -27.1113341497        4.2606914967      -31.4147778537  TIP3      7745            0.0000000000
     48150      7945  TIP3      H1            -26.8254584995        3.3363850307      -31.4421142782  TIP3      7745            0.0000000000
     48151      7945  TIP3      H2            -26.2564839908        4.7253479532      -31.3219132468  TIP3      7745            0.0000000000
     48152      7946  TIP3      OH2           -25.7572559954        7.0786962199      -33.1874581815  TIP3      7746            0.0000000000
     48153      7946  TIP3      H1            -26.0188186180        7.7819902352      -33.8207901551  TIP3      7746            0.0000000000
     48154      7946  TIP3      H2            -24.8029027514        7.0350527548      -33.3901924475  TIP3      7746            0.0000000000
     48155      7947  TIP3      OH2           -34.9838437127        3.9040014270      -32.2162156951  TIP3      7747            0.0000000000
     48156      7947  TIP3      H1            -35.7662276701        3.3379075251      -32.3862204211  TIP3      7747            0.0000000000
     48157      7947  TIP3      H2            -34.3512078081        3.5388797811      -32.8464503528  TIP3      7747            0.0000000000
     48158      7948  TIP3      OH2           -32.2439159147       -1.5142882946      -36.1781648126  TIP3      7748            0.0000000000
     48159      7948  TIP3      H1            -32.4434192194       -0.5636742054      -36.2961165071  TIP3      7748            0.0000000000
     48160      7948  TIP3      H2            -32.9851277784       -1.9005849362      -36.6785509340  TIP3      7748            0.0000000000
     48161      7949  TIP3      OH2           -31.2095886018        2.8027173398      -32.2113534339  TIP3      7749            0.0000000000
     48162      7949  TIP3      H1            -31.5097750862        2.4285314411      -31.3514282289  TIP3      7749            0.0000000000
     48163      7949  TIP3      H2            -31.9666587973        2.5371031327      -32.7797180043  TIP3      7749            0.0000000000
     48164      7950  TIP3      OH2           -28.2662782836        1.9450268268      -33.4160020473  TIP3      7750            0.0000000000
     48165      7950  TIP3      H1            -29.1674730760        1.7501434462      -33.2184489565  TIP3      7750            0.0000000000
     48166      7950  TIP3      H2            -27.8759035681        1.2983374231      -32.7855443248  TIP3      7750            0.0000000000
     48167      7951  TIP3      OH2           -26.7365331379        0.5644792938      -31.5927700110  TIP3      7751            0.0000000000
     48168      7951  TIP3      H1            -26.7152429065       -0.4154535585      -31.5368630519  TIP3      7751            0.0000000000
     48169      7951  TIP3      H2            -26.9072027190        0.8509803959      -30.6704062504  TIP3      7751            0.0000000000
     48170      7952  TIP3      OH2           -36.7814335798        1.8177310040      -32.4400810104  TIP3      7752            0.0000000000
     48171      7952  TIP3      H1            -36.6435115079        1.0722083308      -33.0522028657  TIP3      7752            0.0000000000
     48172      7952  TIP3      H2            -36.9619283924        1.3771502300      -31.5874430166  TIP3      7752            0.0000000000
     48173      7953  TIP3      OH2           -32.0088443806       -2.1052160202      -33.4908793910  TIP3      7753            0.0000000000
     48174      7953  TIP3      H1            -31.3626513438       -2.8437033029      -33.4969590464  TIP3      7753            0.0000000000
     48175      7953  TIP3      H2            -32.1567896331       -2.0157862677      -34.4533808134  TIP3      7753            0.0000000000
     48176      7954  TIP3      OH2           -31.6450765693       -0.5049936430      -31.3880912675  TIP3      7754            0.0000000000
     48177      7954  TIP3      H1            -31.8564230485       -1.0551916252      -32.1863825888  TIP3      7754            0.0000000000
     48178      7954  TIP3      H2            -32.3010374185        0.2160977837      -31.4450697003  TIP3      7754            0.0000000000
     48179      7955  TIP3      OH2           -32.1965508957       16.3886843047      -48.2044289124  TIP3      7755            0.0000000000
     48180      7955  TIP3      H1            -31.2256867117       16.4888194316      -48.1289457029  TIP3      7755            0.0000000000
     48181      7955  TIP3      H2            -32.4008272443       17.0106316393      -48.9125117878  TIP3      7755            0.0000000000
     48182      7956  TIP3      OH2           -38.2368830583       11.0101686916      -48.9312369149  TIP3      7756            0.0000000000
     48183      7956  TIP3      H1            -37.3387721566       10.9712842422      -48.5357557430  TIP3      7756            0.0000000000
     48184      7956  TIP3      H2            -38.3582132188       10.1804429792      -49.4087790954  TIP3      7756            0.0000000000
     48185      7957  TIP3      OH2            40.2948664135       16.5345559919      -43.9698979448  TIP3      7757            0.0000000000
     48186      7957  TIP3      H1             39.4803174139       16.0977402538      -44.2810311829  TIP3      7757            0.0000000000
     48187      7957  TIP3      H2             40.4066267052       15.9120450593      -43.2177215176  TIP3      7757            0.0000000000
     48188      7958  TIP3      OH2           -38.9312753999       14.4948554574      -41.7911398294  TIP3      7758            0.0000000000
     48189      7958  TIP3      H1            -39.2468103283       13.5851031590      -41.6177217970  TIP3      7758            0.0000000000
     48190      7958  TIP3      H2            -38.6913025652       14.7969529091      -40.8917357130  TIP3      7758            0.0000000000
     48191      7959  TIP3      OH2           -21.5165840084       15.2855083971      -38.9455588403  TIP3      7759            0.0000000000
     48192      7959  TIP3      H1            -21.4775559141       15.4415194723      -37.9872906547  TIP3      7759            0.0000000000
     48193      7959  TIP3      H2            -20.8082962078       15.8605645526      -39.2542677028  TIP3      7759            0.0000000000
     48194      7960  TIP3      OH2           -21.9377539250       14.8738149676      -36.0074295793  TIP3      7760            0.0000000000
     48195      7960  TIP3      H1            -22.4067283503       14.1056664460      -36.3914397535  TIP3      7760            0.0000000000
     48196      7960  TIP3      H2            -21.4506721602       14.4272143015      -35.2952819552  TIP3      7760            0.0000000000
     48197      7961  TIP3      OH2           -23.4972209793       10.5976579494      -31.3339817336  TIP3      7761            0.0000000000
     48198      7961  TIP3      H1            -24.4011319010       10.5702173578      -30.9681781370  TIP3      7761            0.0000000000
     48199      7961  TIP3      H2            -23.1229165753       11.4016324247      -30.9247157981  TIP3      7761            0.0000000000
     48200      7962  TIP3      OH2           -22.1790059484        8.9332785477      -45.8916553568  TIP3      7762            0.0000000000
     48201      7962  TIP3      H1            -21.3074904706        9.3178940505      -45.7115644176  TIP3      7762            0.0000000000
     48202      7962  TIP3      H2            -22.1873256963        8.2062983903      -45.2320737014  TIP3      7762            0.0000000000
     48203      7963  TIP3      OH2           -21.8202912417        7.0178580512      -44.0109585076  TIP3      7763            0.0000000000
     48204      7963  TIP3      H1            -22.5666338334        6.4960678133      -43.6366878196  TIP3      7763            0.0000000000
     48205      7963  TIP3      H2            -21.2205815452        7.1309832964      -43.2491620804  TIP3      7763            0.0000000000
     48206      7964  TIP3      OH2           -22.0601668403        9.6981496248      -39.0308665895  TIP3      7764            0.0000000000
     48207      7964  TIP3      H1            -21.2477356304        9.3182893171      -39.4133785467  TIP3      7764            0.0000000000
     48208      7964  TIP3      H2            -21.9139121768       10.6491685135      -39.2037273410  TIP3      7764            0.0000000000
     48209      7965  TIP3      OH2           -23.4983819694       12.6010000828      -36.7651758337  TIP3      7765            0.0000000000
     48210      7965  TIP3      H1            -24.1912421157       12.9426439517      -36.1782872437  TIP3      7765            0.0000000000
     48211      7965  TIP3      H2            -24.0481721244       12.1997550057      -37.4733003470  TIP3      7765            0.0000000000
     48212      7966  TIP3      OH2           -21.4871366555        6.8649714719      -47.6350918731  TIP3      7766            0.0000000000
     48213      7966  TIP3      H1            -22.0869311766        7.1697667675      -48.3530617027  TIP3      7766            0.0000000000
     48214      7966  TIP3      H2            -21.6200463989        7.5592637590      -46.9603082804  TIP3      7766            0.0000000000
     48215      7967  TIP3      OH2           -23.1892153617        4.1317007699      -48.7745619251  TIP3      7767            0.0000000000
     48216      7967  TIP3      H1            -23.0240674964        4.7498996597      -49.5129498990  TIP3      7767            0.0000000000
     48217      7967  TIP3      H2            -23.1390362276        3.2832015905      -49.2538744095  TIP3      7767            0.0000000000
     48218      7968  TIP3      OH2           -23.9928623975        5.4713426563      -43.4333372812  TIP3      7768            0.0000000000
     48219      7968  TIP3      H1            -24.1420167781        4.5177115239      -43.4863271214  TIP3      7768            0.0000000000
     48220      7968  TIP3      H2            -24.3231127848        5.6826568977      -42.5426492217  TIP3      7768            0.0000000000
     48221      7969  TIP3      OH2           -38.9033237803        7.4091182151      -39.2740465201  TIP3      7769            0.0000000000
     48222      7969  TIP3      H1            -38.7488166880        7.4109093946      -40.2469027876  TIP3      7769            0.0000000000
     48223      7969  TIP3      H2            -37.9807831530        7.3779031422      -38.9529894794  TIP3      7769            0.0000000000
     48224      7970  TIP3      OH2           -23.1392687999        7.4363263936      -33.7509074844  TIP3      7770            0.0000000000
     48225      7970  TIP3      H1            -22.5243880640        6.6829598516      -33.6246156544  TIP3      7770            0.0000000000
     48226      7970  TIP3      H2            -22.5353555339        8.2112126921      -33.7573852576  TIP3      7770            0.0000000000
     48227      7971  TIP3      OH2           -21.6327702214        5.3198117748      -33.1080435866  TIP3      7771            0.0000000000
     48228      7971  TIP3      H1            -22.5161098791        4.9214625879      -33.2616976455  TIP3      7771            0.0000000000
     48229      7971  TIP3      H2            -21.0633432387        4.5363545378      -33.1842613821  TIP3      7771            0.0000000000
     48230      7972  TIP3      OH2           -23.9117931643        1.4083876725      -49.9535593026  TIP3      7772            0.0000000000
     48231      7972  TIP3      H1            -23.3233383406        1.0006821091      -49.2918127249  TIP3      7772            0.0000000000
     48232      7972  TIP3      H2            -24.7931323008        1.0582130400      -49.7493560041  TIP3      7772            0.0000000000
     48233      7973  TIP3      OH2           -24.3408033815        3.0388497678      -45.0058094974  TIP3      7773            0.0000000000
     48234      7973  TIP3      H1            -24.0330368482        2.1134884030      -44.8592161546  TIP3      7773            0.0000000000
     48235      7973  TIP3      H2            -23.5421593133        3.4474914560      -45.3714903010  TIP3      7773            0.0000000000
     48236      7974  TIP3      OH2           -23.6892949334        3.5980154904      -39.5485409969  TIP3      7774            0.0000000000
     48237      7974  TIP3      H1            -22.7292277822        3.8203224912      -39.5616885232  TIP3      7774            0.0000000000
     48238      7974  TIP3      H2            -23.8778204366        3.7251542944      -38.6091924160  TIP3      7774            0.0000000000
     48239      7975  TIP3      OH2           -23.6266590007        4.3230330251      -36.7614159142  TIP3      7775            0.0000000000
     48240      7975  TIP3      H1            -24.5090373368        4.6143735829      -36.4542133500  TIP3      7775            0.0000000000
     48241      7975  TIP3      H2            -23.1891066157        5.1783883496      -36.9884290980  TIP3      7775            0.0000000000
     48242      7976  TIP3      OH2           -39.2280003739        2.9099126168      -33.4160434018  TIP3      7776            0.0000000000
     48243      7976  TIP3      H1            -38.3480381335        2.6949814679      -33.0704371272  TIP3      7776            0.0000000000
     48244      7976  TIP3      H2            -39.8035636858        2.2709580758      -32.9612582485  TIP3      7776            0.0000000000
     48245      7977  TIP3      OH2           -21.3505883026       -1.6115558124      -31.4278629966  TIP3      7777            0.0000000000
     48246      7977  TIP3      H1            -20.9987430351       -2.2734217439      -32.0476954243  TIP3      7777            0.0000000000
     48247      7977  TIP3      H2            -21.2497362425       -0.7979241646      -31.9610931887  TIP3      7777            0.0000000000
     48248      7978  TIP3      OH2           -23.6511722065        0.3254910656      -44.9325632174  TIP3      7778            0.0000000000
     48249      7978  TIP3      H1            -23.4392417949       -0.1159869503      -44.0778100489  TIP3      7778            0.0000000000
     48250      7978  TIP3      H2            -24.2643447361       -0.3083880587      -45.3661761161  TIP3      7778            0.0000000000
     48251      7979  TIP3      OH2           -38.1102117984        1.1238457781      -40.4956747380  TIP3      7779            0.0000000000
     48252      7979  TIP3      H1            -37.7265210237        0.3038029922      -40.1261682085  TIP3      7779            0.0000000000
     48253      7979  TIP3      H2            -37.6719410153        1.8163419755      -39.9799093886  TIP3      7779            0.0000000000
     48254      7980  TIP3      OH2           -39.8503196120        4.6753080427      -39.4123882093  TIP3      7780            0.0000000000
     48255      7980  TIP3      H1            -39.3126456385        4.1998052034      -40.0653037197  TIP3      7780            0.0000000000
     48256      7980  TIP3      H2            -39.2050858795        5.2416669918      -38.9795430145  TIP3      7780            0.0000000000
     48257      7981  TIP3      OH2           -21.8332490422        0.4882243862      -33.0708955213  TIP3      7781            0.0000000000
     48258      7981  TIP3      H1            -22.7706860946        0.7577515988      -33.1225044634  TIP3      7781            0.0000000000
     48259      7981  TIP3      H2            -21.7985506357       -0.0653724409      -33.8670344211  TIP3      7781            0.0000000000
     48260      7982  TIP3      OH2           -21.8155715918        0.3924049687      -48.3647798849  TIP3      7782            0.0000000000
     48261      7982  TIP3      H1            -21.4006897708       -0.2909158847      -48.9094868176  TIP3      7782            0.0000000000
     48262      7982  TIP3      H2            -21.1194541820        1.0696516184      -48.3757943713  TIP3      7782            0.0000000000
     48263      7983  TIP3      OH2           -39.5091870947        0.4214846969      -45.3312784426  TIP3      7783            0.0000000000
     48264      7983  TIP3      H1            -40.4382632552        0.6145694018      -45.4828115542  TIP3      7783            0.0000000000
     48265      7983  TIP3      H2            -39.0481853498        0.9252896310      -46.0242633817  TIP3      7783            0.0000000000
     48266      7984  TIP3      OH2           -24.7827517982       15.3584338730      -43.3437694062  TIP3      7784            0.0000000000
     48267      7984  TIP3      H1            -24.1043561105       15.0514667287      -43.9662562895  TIP3      7784            0.0000000000
     48268      7984  TIP3      H2            -24.2730928664       15.8536433737      -42.6828276510  TIP3      7784            0.0000000000
     48269      7985  TIP3      OH2            40.3091059685       -0.7898669020      -36.9682580908  TIP3      7785            0.0000000000
     48270      7985  TIP3      H1             39.5985404594       -1.1908428233      -36.4358359388  TIP3      7785            0.0000000000
     48271      7985  TIP3      H2             39.7602534472       -0.2503785114      -37.5485262648  TIP3      7785            0.0000000000
     48272      7986  TIP3      OH2           -37.3801502553       12.2818949716      -32.7943074652  TIP3      7786            0.0000000000
     48273      7986  TIP3      H1            -38.2003482985       12.4645063822      -33.2529611004  TIP3      7786            0.0000000000
     48274      7986  TIP3      H2            -37.6254420229       12.1722550633      -31.8681182150  TIP3      7786            0.0000000000
     48275      7987  TIP3      OH2           -34.4460712680       13.2721000436      -36.5398417197  TIP3      7787            0.0000000000
     48276      7987  TIP3      H1            -34.7940056210       14.1344960011      -36.8126901083  TIP3      7787            0.0000000000
     48277      7987  TIP3      H2            -33.5184797210       13.3615296912      -36.8459392843  TIP3      7787            0.0000000000
     48278      7988  TIP3      OH2           -30.1234667774       14.6983632681      -33.6321574659  TIP3      7788            0.0000000000
     48279      7988  TIP3      H1            -29.9781566046       14.3603964532      -32.7170668752  TIP3      7788            0.0000000000
     48280      7988  TIP3      H2            -29.2254922087       14.9838780471      -33.8937538393  TIP3      7788            0.0000000000
     48281      7989  TIP3      OH2           -27.8207983023       15.9810664859      -34.3248247632  TIP3      7789            0.0000000000
     48282      7989  TIP3      H1            -27.1095252308       15.3713834844      -34.5772841206  TIP3      7789            0.0000000000
     48283      7989  TIP3      H2            -27.4645372913       16.3836285563      -33.5166825057  TIP3      7789            0.0000000000
     48284      7990  TIP3      OH2           -22.8066635081       -1.4240587172      -35.2212742828  TIP3      7790            0.0000000000
     48285      7990  TIP3      H1            -23.6380863133       -1.1269501625      -35.6314057465  TIP3      7790            0.0000000000
     48286      7990  TIP3      H2            -22.6455021371       -2.2478981649      -35.7347345686  TIP3      7790            0.0000000000
     48287      7991  TIP3      OH2           -37.0231652178       16.5264399885      -36.5139566724  TIP3      7791            0.0000000000
     48288      7991  TIP3      H1            -37.7686020916       17.0039780848      -36.9309291717  TIP3      7791            0.0000000000
     48289      7991  TIP3      H2            -37.3492595562       16.2959602167      -35.6362757786  TIP3      7791            0.0000000000
     48290      7992  TIP3      OH2           -34.5357934386       16.0892793507      -37.4653216935  TIP3      7792            0.0000000000
     48291      7992  TIP3      H1            -35.4372653323       16.2225624103      -37.0896378636  TIP3      7792            0.0000000000
     48292      7992  TIP3      H2            -34.5898454106       16.6720617855      -38.2453947997  TIP3      7792            0.0000000000
     48293      7993  TIP3      OH2           -29.8372539440       15.9944391730      -38.3002300117  TIP3      7793            0.0000000000
     48294      7993  TIP3      H1            -30.2984400305       16.5527741970      -38.9482509436  TIP3      7793            0.0000000000
     48295      7993  TIP3      H2            -29.7042227436       16.6326178388      -37.5622389260  TIP3      7793            0.0000000000
     48296      7994  TIP3      OH2           -27.5519282254       14.8028231167      -37.2708608513  TIP3      7794            0.0000000000
     48297      7994  TIP3      H1            -28.4033627932       15.0831274284      -37.6445170105  TIP3      7794            0.0000000000
     48298      7994  TIP3      H2            -27.0645093919       15.6380148078      -37.3627870800  TIP3      7794            0.0000000000
     48299      7995  TIP3      OH2           -24.9754461557       16.3831255019      -37.0346770279  TIP3      7795            0.0000000000
     48300      7995  TIP3      H1            -25.0319569977       17.3373587097      -37.2847225191  TIP3      7795            0.0000000000
     48301      7995  TIP3      H2            -24.7582785721       16.0054668714      -37.9119586229  TIP3      7795            0.0000000000
     48302      7996  TIP3      OH2           -37.5200544235       15.2083267053      -39.5915064294  TIP3      7796            0.0000000000
     48303      7996  TIP3      H1            -37.6173282476       14.7084189243      -38.7601193238  TIP3      7796            0.0000000000
     48304      7996  TIP3      H2            -36.7609241659       14.7637909551      -40.0107607977  TIP3      7796            0.0000000000
     48305      7997  TIP3      OH2           -35.4900341846       13.8577865479      -40.9426419210  TIP3      7797            0.0000000000
     48306      7997  TIP3      H1            -35.6553935011       12.9255841877      -40.7075117588  TIP3      7797            0.0000000000
     48307      7997  TIP3      H2            -34.6336366873       14.0253054272      -40.4933467654  TIP3      7797            0.0000000000
     48308      7998  TIP3      OH2           -32.8870940008       14.3501113289      -40.0680500213  TIP3      7798            0.0000000000
     48309      7998  TIP3      H1            -32.7197132521       13.4278009802      -40.3343192088  TIP3      7798            0.0000000000
     48310      7998  TIP3      H2            -32.8270513611       14.2960442877      -39.1042240262  TIP3      7798            0.0000000000
     48311      7999  TIP3      OH2           -29.4214484886        0.0059209305      -40.9362834753  TIP3      7799            0.0000000000
     48312      7999  TIP3      H1            -30.0961686218       -0.6360676288      -40.6547611764  TIP3      7799            0.0000000000
     48313      7999  TIP3      H2            -28.8675708470       -0.5309326717      -41.5179585099  TIP3      7799            0.0000000000
     48314      8000  TIP3      OH2           -24.3085625227       -1.7741078702      -40.7392733727  TIP3      7800            0.0000000000
     48315      8000  TIP3      H1            -23.6718683575       -1.3879146269      -41.3876312479  TIP3      7800            0.0000000000
     48316      8000  TIP3      H2            -25.1803009990       -1.5915401286      -41.1278948231  TIP3      7800            0.0000000000
     48317      8001  TIP3      OH2           -22.6288013911       -0.6789014335      -42.6096418501  TIP3      7801            0.0000000000
     48318      8001  TIP3      H1            -21.9532109579       -1.2970185031      -42.9864839616  TIP3      7801            0.0000000000
     48319      8001  TIP3      H2            -22.0934091519        0.1329129280      -42.4838445338  TIP3      7801            0.0000000000
     48320      8002  TIP3      OH2           -37.0495382097       -1.3830366228      -43.0597244354  TIP3      7802            0.0000000000
     48321      8002  TIP3      H1            -37.8065842939       -1.5520231060      -43.6499047244  TIP3      7802            0.0000000000
     48322      8002  TIP3      H2            -36.5806359372       -2.2370982329      -43.1447156088  TIP3      7802            0.0000000000
     48323      8003  TIP3      OH2           -38.2860970497       -1.6168277352      -47.3568198288  TIP3      7803            0.0000000000
     48324      8003  TIP3      H1            -37.7894292128       -0.9371115670      -47.8419723694  TIP3      7803            0.0000000000
     48325      8003  TIP3      H2            -38.8492303282       -1.0386352853      -46.8073264981  TIP3      7803            0.0000000000
     48326      8004  TIP3      OH2           -32.5810257455       -1.4467321655      -43.3013291250  TIP3      7804            0.0000000000
     48327      8004  TIP3      H1            -31.6790990693       -1.0897860812      -43.3776042752  TIP3      7804            0.0000000000
     48328      8004  TIP3      H2            -32.6154163401       -1.6684311622      -42.3699339147  TIP3      7804            0.0000000000
     48329      8005  TIP3      OH2           -26.9031243690       -1.4126568921      -41.6806143897  TIP3      7805            0.0000000000
     48330      8005  TIP3      H1            -26.8871553328       -1.3368495601      -42.6474406063  TIP3      7805            0.0000000000
     48331      8005  TIP3      H2            -27.2248905929       -2.3376408596      -41.5456506313  TIP3      7805            0.0000000000
     48332      8006  TIP3      OH2           -25.5777749505       -1.4064860902      -46.0086439365  TIP3      7806            0.0000000000
     48333      8006  TIP3      H1            -26.3294306088       -0.8175553117      -46.1765503298  TIP3      7806            0.0000000000
     48334      8006  TIP3      H2            -26.0202886239       -2.2529532664      -45.7678114318  TIP3      7806            0.0000000000
     48335      8007  TIP3      OH2           -38.3372663123       14.3428151641      -46.4411712089  TIP3      7807            0.0000000000
     48336      8007  TIP3      H1            -39.0465359331       14.3712117926      -47.0842147803  TIP3      7807            0.0000000000
     48337      8007  TIP3      H2            -38.3330634842       15.2721525090      -46.1522684318  TIP3      7807            0.0000000000
     48338      8008  TIP3      OH2           -36.4517540767        0.2902517776      -48.7710803591  TIP3      7808            0.0000000000
     48339      8008  TIP3      H1            -35.8475441205       -0.1621107347      -49.3056920407  TIP3      7808            0.0000000000
     48340      8008  TIP3      H2            -35.8184618759        0.7066981956      -48.1562734384  TIP3      7808            0.0000000000
     48341      8009  TIP3      OH2           -31.4037085042        0.5904055530      -46.4555400537  TIP3      7809            0.0000000000
     48342      8009  TIP3      H1            -31.1717506083       -0.0093313046      -45.7289493163  TIP3      7809            0.0000000000
     48343      8009  TIP3      H2            -31.3658842390        1.4369681299      -45.9597833781  TIP3      7809            0.0000000000
     48344      8010  TIP3      OH2           -29.4996255335       15.6348517705      -48.0160266683  TIP3      7810            0.0000000000
     48345      8010  TIP3      H1            -28.5631545450       15.8881118081      -48.1888068447  TIP3      7810            0.0000000000
     48346      8010  TIP3      H2            -29.6837882119       15.1358206530      -48.8365202720  TIP3      7810            0.0000000000
     48347      8011  TIP3      OH2           -22.7690237738       15.1472633780      -45.3118190913  TIP3      7811            0.0000000000
     48348      8011  TIP3      H1            -23.0088943008       14.3620507742      -45.8598623845  TIP3      7811            0.0000000000
     48349      8011  TIP3      H2            -22.8932062301       15.8898198045      -45.9319112888  TIP3      7811            0.0000000000
     48350      8012  TIP3      OH2           -37.1727057415       -0.8159004473      -33.6168940185  TIP3      7812            0.0000000000
     48351      8012  TIP3      H1            -37.5681595628       -1.6269937882      -33.2433232703  TIP3      7812            0.0000000000
     48352      8012  TIP3      H2            -36.2574038809       -0.8782219455      -33.2543591285  TIP3      7812            0.0000000000
     48353      8013  TIP3      OH2           -35.1856155953       -1.4526882338      -31.9964173363  TIP3      7813            0.0000000000
     48354      8013  TIP3      H1            -34.2914533741       -1.7771993076      -32.2096165697  TIP3      7813            0.0000000000
     48355      8013  TIP3      H2            -35.5498423065       -2.2617284887      -31.5903622448  TIP3      7813            0.0000000000
     48356      8014  TIP3      OH2           -36.1917533640       15.5188893042      -49.0587204195  TIP3      7814            0.0000000000
     48357      8014  TIP3      H1            -36.7807334990       15.5528806703      -48.3061041308  TIP3      7814            0.0000000000
     48358      8014  TIP3      H2            -35.7090546958       14.6900503234      -49.0382919247  TIP3      7814            0.0000000000
     48359      8015  TIP3      OH2           -26.7590944723       -2.1585302794      -31.8404558783  TIP3      7815            0.0000000000
     48360      8015  TIP3      H1            -26.6673672968       -2.6355064346      -30.9930284482  TIP3      7815            0.0000000000
     48361      8015  TIP3      H2            -25.8433901699       -2.1962572016      -32.1881775319  TIP3      7815            0.0000000000
     48362      8016  TIP3      OH2           -23.5545914069       13.8967028201      -33.2083905804  TIP3      7816            0.0000000000
     48363      8016  TIP3      H1            -24.3500770771       13.7361296061      -33.7628524409  TIP3      7816            0.0000000000
     48364      8016  TIP3      H2            -23.6699537563       14.8347948969      -32.9988950243  TIP3      7816            0.0000000000
     48365      8017  TIP3      OH2            -9.1035079728        7.7715830855      -43.2445725766  TIP3      7817            0.0000000000
     48366      8017  TIP3      H1             -9.1217310568        8.7516294005      -43.2677922509  TIP3      7817            0.0000000000
     48367      8017  TIP3      H2             -9.8380832965        7.5355088275      -43.8330803009  TIP3      7817            0.0000000000
     48368      8018  TIP3      OH2           -10.2532797729        7.0213685331      -39.7257147122  TIP3      7818            0.0000000000
     48369      8018  TIP3      H1            -10.2684386860        6.3711283425      -39.0092062208  TIP3      7818            0.0000000000
     48370      8018  TIP3      H2            -10.6012297442        6.5125866533      -40.4781833361  TIP3      7818            0.0000000000
     48371      8019  TIP3      OH2           -17.8995447573        6.6996790109      -38.1775368869  TIP3      7819            0.0000000000
     48372      8019  TIP3      H1            -17.8154207262        6.0107557140      -37.4853754497  TIP3      7819            0.0000000000
     48373      8019  TIP3      H2            -17.1493103848        7.2691587592      -37.9535489135  TIP3      7819            0.0000000000
     48374      8020  TIP3      OH2            -6.5674850623        9.9703591607      -41.4438943269  TIP3      7820            0.0000000000
     48375      8020  TIP3      H1             -6.9792869907        9.2530657398      -40.9522266487  TIP3      7820            0.0000000000
     48376      8020  TIP3      H2             -6.5415372792       10.6786390331      -40.7740706738  TIP3      7820            0.0000000000
     48377      8021  TIP3      OH2           -16.9736092598       11.1478063269      -39.6786626717  TIP3      7821            0.0000000000
     48378      8021  TIP3      H1            -17.2824131027       10.2770773991      -39.9938019773  TIP3      7821            0.0000000000
     48379      8021  TIP3      H2            -16.0179870232       10.9649456626      -39.6323048246  TIP3      7821            0.0000000000
     48380      8022  TIP3      OH2           -20.3407585735        4.6992612822      -44.1873915845  TIP3      7822            0.0000000000
     48381      8022  TIP3      H1            -20.7691862934        5.5732294792      -44.2454515881  TIP3      7822            0.0000000000
     48382      8022  TIP3      H2            -20.8950118935        4.1631931474      -44.7688701006  TIP3      7822            0.0000000000
     48383      8023  TIP3      OH2           -19.6214438750        6.9284768485      -42.0352122643  TIP3      7823            0.0000000000
     48384      8023  TIP3      H1            -19.3453047047        6.1068344969      -41.5871274008  TIP3      7823            0.0000000000
     48385      8023  TIP3      H2            -18.9297145402        7.0358126143      -42.7056005095  TIP3      7823            0.0000000000
     48386      8024  TIP3      OH2            -9.4404321331       15.1326974183      -41.2025747566  TIP3      7824            0.0000000000
     48387      8024  TIP3      H1             -8.7964663756       14.4411648936      -41.4939873469  TIP3      7824            0.0000000000
     48388      8024  TIP3      H2             -9.6631195612       14.7905025584      -40.3372737540  TIP3      7824            0.0000000000
     48389      8025  TIP3      OH2           -11.8760656965        9.4178618254      -39.2546600778  TIP3      7825            0.0000000000
     48390      8025  TIP3      H1            -11.5388531571        8.7940868659      -39.9153568410  TIP3      7825            0.0000000000
     48391      8025  TIP3      H2            -11.0645717878        9.5788640142      -38.7419771067  TIP3      7825            0.0000000000
     48392      8026  TIP3      OH2            -3.4472638755        1.0030970886      -38.4657694086  TIP3      7826            0.0000000000
     48393      8026  TIP3      H1             -3.3343697407        1.6370563833      -37.7222812642  TIP3      7826            0.0000000000
     48394      8026  TIP3      H2             -3.1753732365        1.4646102757      -39.2624480961  TIP3      7826            0.0000000000
     48395      8027  TIP3      OH2            -8.7202120801        3.8933536902      -38.9436352658  TIP3      7827            0.0000000000
     48396      8027  TIP3      H1             -8.5513963702        2.9362501448      -38.9350982193  TIP3      7827            0.0000000000
     48397      8027  TIP3      H2             -8.8158733335        4.0311727755      -39.9063594513  TIP3      7827            0.0000000000
     48398      8028  TIP3      OH2           -15.5961406014        1.9797649448      -41.7294459164  TIP3      7828            0.0000000000
     48399      8028  TIP3      H1            -15.4872377877        2.8137521996      -42.2230302084  TIP3      7828            0.0000000000
     48400      8028  TIP3      H2            -15.9937961924        1.4059935859      -42.4192558380  TIP3      7828            0.0000000000
     48401      8029  TIP3      OH2            -7.8552051805        2.0605758450      -43.3575653695  TIP3      7829            0.0000000000
     48402      8029  TIP3      H1             -7.2049461582        1.7449420364      -42.6890487687  TIP3      7829            0.0000000000
     48403      8029  TIP3      H2             -7.2910418697        2.6306520444      -43.9049863842  TIP3      7829            0.0000000000
     48404      8030  TIP3      OH2           -18.9729568089        4.3912483128      -40.9944188463  TIP3      7830            0.0000000000
     48405      8030  TIP3      H1            -18.3023324980        3.8470445718      -40.5393953456  TIP3      7830            0.0000000000
     48406      8030  TIP3      H2            -18.8651196707        4.0756185420      -41.9057151460  TIP3      7830            0.0000000000
     48407      8031  TIP3      OH2           -13.8136330683        5.9457270916      -41.6715757871  TIP3      7831            0.0000000000
     48408      8031  TIP3      H1            -13.1413547627        5.3645099860      -41.2747151234  TIP3      7831            0.0000000000
     48409      8031  TIP3      H2            -14.3275547392        5.2893712639      -42.1821099024  TIP3      7831            0.0000000000
     48410      8032  TIP3      OH2            -2.8255316547        2.4800220362      -36.3121227386  TIP3      7832            0.0000000000
     48411      8032  TIP3      H1             -3.4437950178        3.2481469497      -36.3633434341  TIP3      7832            0.0000000000
     48412      8032  TIP3      H2             -2.7936002488        2.3867085877      -35.3369100702  TIP3      7832            0.0000000000
     48413      8033  TIP3      OH2           -16.6839874064        0.8792183738      -37.6891632843  TIP3      7833            0.0000000000
     48414      8033  TIP3      H1            -16.9678151092        1.4505315885      -38.4345997359  TIP3      7833            0.0000000000
     48415      8033  TIP3      H2            -17.3624910781        1.1057841910      -37.0072698489  TIP3      7833            0.0000000000
     48416      8034  TIP3      OH2            -9.4084974343       10.3554444608      -44.1432983139  TIP3      7834            0.0000000000
     48417      8034  TIP3      H1             -9.6830119421       10.0727907011      -45.0284576700  TIP3      7834            0.0000000000
     48418      8034  TIP3      H2             -9.7072402347       11.2943480896      -44.1032552902  TIP3      7834            0.0000000000
     48419      8035  TIP3      OH2           -14.1743971334        8.5210806589      -37.4515971085  TIP3      7835            0.0000000000
     48420      8035  TIP3      H1            -14.8777324350        9.1662779985      -37.2282059865  TIP3      7835            0.0000000000
     48421      8035  TIP3      H2            -13.4667463873        9.1195184387      -37.7414944977  TIP3      7835            0.0000000000
     48422      8036  TIP3      OH2            -6.0250646953        1.3979699461      -41.3687170279  TIP3      7836            0.0000000000
     48423      8036  TIP3      H1             -6.2861304487        0.6386781596      -40.8371026454  TIP3      7836            0.0000000000
     48424      8036  TIP3      H2             -5.3918521748        1.8492141147      -40.7951332362  TIP3      7836            0.0000000000
     48425      8037  TIP3      OH2           -17.1158487010        2.7320777017      -39.6490377164  TIP3      7837            0.0000000000
     48426      8037  TIP3      H1            -16.4901599868        3.4243646552      -39.3390278538  TIP3      7837            0.0000000000
     48427      8037  TIP3      H2            -16.6020559378        2.3254880060      -40.3910735236  TIP3      7837            0.0000000000
     48428      8038  TIP3      OH2           -15.7246129709       10.5285914488      -36.6304108671  TIP3      7838            0.0000000000
     48429      8038  TIP3      H1            -15.7755473302       11.4413089403      -36.9692644605  TIP3      7838            0.0000000000
     48430      8038  TIP3      H2            -16.6067239717       10.4469485429      -36.1869974133  TIP3      7838            0.0000000000
     48431      8039  TIP3      OH2           -19.6706585638       10.1241558796      -45.7998821386  TIP3      7839            0.0000000000
     48432      8039  TIP3      H1            -19.8934798557       10.4372986052      -46.6982133375  TIP3      7839            0.0000000000
     48433      8039  TIP3      H2            -19.5835272875       10.9660107432      -45.3107130838  TIP3      7839            0.0000000000
     48434      8040  TIP3      OH2            -6.0369174319       11.8094746866      -39.0771206285  TIP3      7840            0.0000000000
     48435      8040  TIP3      H1             -7.0056029946       11.9191469480      -38.9592663526  TIP3      7840            0.0000000000
     48436      8040  TIP3      H2             -5.7693283285       12.7248677376      -39.2830764522  TIP3      7840            0.0000000000
     48437      8041  TIP3      OH2            -5.7699295976        0.0856118854      -37.6732943594  TIP3      7841            0.0000000000
     48438      8041  TIP3      H1             -6.4905095983        0.7246147031      -37.7737558948  TIP3      7841            0.0000000000
     48439      8041  TIP3      H2             -5.0456095573        0.4823356577      -38.1936522486  TIP3      7841            0.0000000000
     48440      8042  TIP3      OH2           -12.7467137272       -1.7768729636      -40.2347682532  TIP3      7842            0.0000000000
     48441      8042  TIP3      H1            -12.8828552249       -2.7357630141      -40.3113968150  TIP3      7842            0.0000000000
     48442      8042  TIP3      H2            -13.6257143776       -1.4802141762      -39.9178986556  TIP3      7842            0.0000000000
     48443      8043  TIP3      OH2            -7.7686554740       13.5898031780      -42.4740738265  TIP3      7843            0.0000000000
     48444      8043  TIP3      H1             -7.3513315516       12.8715247741      -42.9948466173  TIP3      7843            0.0000000000
     48445      8043  TIP3      H2             -7.3438218291       14.3785140719      -42.8773248068  TIP3      7843            0.0000000000
     48446      8044  TIP3      OH2            -6.5672548740       11.5121164590      -43.9520867064  TIP3      7844            0.0000000000
     48447      8044  TIP3      H1             -6.8562792650       10.8268341700      -44.5806818901  TIP3      7844            0.0000000000
     48448      8044  TIP3      H2             -6.5332549795       11.0104888862      -43.1197046264  TIP3      7844            0.0000000000
     48449      8045  TIP3      OH2            -4.9466883281       10.1162029738      -35.4776377158  TIP3      7845            0.0000000000
     48450      8045  TIP3      H1             -4.8034096916        9.4638499035      -36.1991870698  TIP3      7845            0.0000000000
     48451      8045  TIP3      H2             -4.7444253571       10.9592840119      -35.9230305033  TIP3      7845            0.0000000000
     48452      8046  TIP3      OH2           -10.4642959260        7.0360579814      -45.7151567297  TIP3      7846            0.0000000000
     48453      8046  TIP3      H1            -11.1571035420        7.6164051375      -46.0910904644  TIP3      7846            0.0000000000
     48454      8046  TIP3      H2             -9.7463353320        7.1072775349      -46.3737918468  TIP3      7846            0.0000000000
     48455      8047  TIP3      OH2           -10.3507451161        5.5013163052      -48.6770492512  TIP3      7847            0.0000000000
     48456      8047  TIP3      H1             -9.6326397223        5.5377906229      -48.0168334945  TIP3      7847            0.0000000000
     48457      8047  TIP3      H2            -10.0173801390        4.8020350563      -49.2684354382  TIP3      7847            0.0000000000
     48458      8048  TIP3      OH2            -3.0664932768        6.4043078605      -37.4604214971  TIP3      7848            0.0000000000
     48459      8048  TIP3      H1             -3.7128527900        7.1407278377      -37.3907777846  TIP3      7848            0.0000000000
     48460      8048  TIP3      H2             -2.5585998121        6.6917647625      -38.2418201005  TIP3      7848            0.0000000000
     48461      8049  TIP3      OH2            -7.0098225880        7.2253396255      -44.7723855150  TIP3      7849            0.0000000000
     48462      8049  TIP3      H1             -7.7574138520        7.4593435170      -44.1714961775  TIP3      7849            0.0000000000
     48463      8049  TIP3      H2             -6.5302911388        6.5466054780      -44.2658787967  TIP3      7849            0.0000000000
     48464      8050  TIP3      OH2            -7.0707864538        5.3800977938      -35.6662718035  TIP3      7850            0.0000000000
     48465      8050  TIP3      H1             -7.0635678125        6.1959745191      -35.1403015986  TIP3      7850            0.0000000000
     48466      8050  TIP3      H2             -7.7017166805        5.6715154289      -36.3591473194  TIP3      7850            0.0000000000
     48467      8051  TIP3      OH2           -15.3935839429        7.8716190886      -42.8765344272  TIP3      7851            0.0000000000
     48468      8051  TIP3      H1            -15.7108418978        7.4937607381      -43.7341047258  TIP3      7851            0.0000000000
     48469      8051  TIP3      H2            -14.7776592178        7.1804236466      -42.5452601241  TIP3      7851            0.0000000000
     48470      8052  TIP3      OH2           -14.0779289205       11.2560532077      -40.1937596211  TIP3      7852            0.0000000000
     48471      8052  TIP3      H1            -14.0777580353       10.7347937408      -41.0061413180  TIP3      7852            0.0000000000
     48472      8052  TIP3      H2            -13.2911344997       10.9015351035      -39.7381553376  TIP3      7852            0.0000000000
     48473      8053  TIP3      OH2           -15.0635493797        6.6204140305      -39.2125436950  TIP3      7853            0.0000000000
     48474      8053  TIP3      H1            -14.5154979351        6.7177479376      -40.0159664619  TIP3      7853            0.0000000000
     48475      8053  TIP3      H2            -14.6701882532        7.2856998557      -38.6049144504  TIP3      7853            0.0000000000
     48476      8054  TIP3      OH2            -8.6410184530       12.1945471638      -38.5035308220  TIP3      7854            0.0000000000
     48477      8054  TIP3      H1             -8.9281220174       12.8281899173      -37.8399076771  TIP3      7854            0.0000000000
     48478      8054  TIP3      H2             -8.8986299433       11.3402124872      -38.0846085183  TIP3      7854            0.0000000000
     48479      8055  TIP3      OH2           -14.1080654569       11.0513955831      -34.5178074550  TIP3      7855            0.0000000000
     48480      8055  TIP3      H1            -14.5247013978       11.7895751544      -34.0277692474  TIP3      7855            0.0000000000
     48481      8055  TIP3      H2            -14.7799439254       10.8507748330      -35.2153560865  TIP3      7855            0.0000000000
     48482      8056  TIP3      OH2            -8.1664600444        6.4248299478      -47.1150417135  TIP3      7856            0.0000000000
     48483      8056  TIP3      H1             -7.5889737395        6.5955968535      -46.3331221680  TIP3      7856            0.0000000000
     48484      8056  TIP3      H2             -7.6796510831        6.8960456061      -47.8352398439  TIP3      7856            0.0000000000
     48485      8057  TIP3      OH2           -17.1666516388        7.2095605202      -35.3660228699  TIP3      7857            0.0000000000
     48486      8057  TIP3      H1            -17.1123621560        7.8787951362      -34.6582142183  TIP3      7857            0.0000000000
     48487      8057  TIP3      H2            -18.1093507345        7.2972144898      -35.5754800913  TIP3      7857            0.0000000000
     48488      8058  TIP3      OH2           -10.4018224863       13.1472736011      -43.6731188179  TIP3      7858            0.0000000000
     48489      8058  TIP3      H1             -9.9834540738       13.4417179908      -42.8542237110  TIP3      7858            0.0000000000
     48490      8058  TIP3      H2            -10.9784780323       13.8881101724      -43.8872811020  TIP3      7858            0.0000000000
     48491      8059  TIP3      OH2           -15.8607768967       13.0843886450      -33.7713809612  TIP3      7859            0.0000000000
     48492      8059  TIP3      H1            -15.9234905866       12.9870801929      -34.7370533771  TIP3      7859            0.0000000000
     48493      8059  TIP3      H2            -16.7904328242       12.9506132387      -33.5030943338  TIP3      7859            0.0000000000
     48494      8060  TIP3      OH2            -4.3854676614       -1.8712906898      -47.2705290464  TIP3      7860            0.0000000000
     48495      8060  TIP3      H1             -5.3291286943       -1.7713848360      -46.9924769062  TIP3      7860            0.0000000000
     48496      8060  TIP3      H2             -4.2189516486       -0.9996769322      -47.6676911027  TIP3      7860            0.0000000000
     48497      8061  TIP3      OH2           -16.4397743036        6.8992787680      -45.2315371410  TIP3      7861            0.0000000000
     48498      8061  TIP3      H1            -16.7175390006        7.6676503794      -45.7731440595  TIP3      7861            0.0000000000
     48499      8061  TIP3      H2            -17.0727288480        6.2223084643      -45.4795927734  TIP3      7861            0.0000000000
     48500      8062  TIP3      OH2            -3.3230360788       12.5285952440      -48.7507238519  TIP3      7862            0.0000000000
     48501      8062  TIP3      H1             -3.1566887463       13.4816591272      -48.6690008333  TIP3      7862            0.0000000000
     48502      8062  TIP3      H2             -2.4327330497       12.1517463701      -48.8597351071  TIP3      7862            0.0000000000
     48503      8063  TIP3      OH2           -20.3389659739        9.3230164846      -36.3562491147  TIP3      7863            0.0000000000
     48504      8063  TIP3      H1            -20.7756115408        9.2425188643      -37.2231823873  TIP3      7863            0.0000000000
     48505      8063  TIP3      H2            -20.2505764553        8.3758359912      -36.1442590460  TIP3      7863            0.0000000000
     48506      8064  TIP3      OH2           -20.5693587851       12.0577229662      -39.5860492930  TIP3      7864            0.0000000000
     48507      8064  TIP3      H1            -19.6104465271       11.9447264263      -39.6059466528  TIP3      7864            0.0000000000
     48508      8064  TIP3      H2            -20.6533343743       12.8765341171      -39.0833198260  TIP3      7864            0.0000000000
     48509      8065  TIP3      OH2            -2.3287789896       12.7694481006      -33.8930589169  TIP3      7865            0.0000000000
     48510      8065  TIP3      H1             -2.4447134155       11.8106601761      -33.9362716554  TIP3      7865            0.0000000000
     48511      8065  TIP3      H2             -3.2051607841       13.0147784870      -33.5115973979  TIP3      7865            0.0000000000
     48512      8066  TIP3      OH2           -11.3753453134       12.3040540390      -35.0337250413  TIP3      7866            0.0000000000
     48513      8066  TIP3      H1            -11.3169364261       13.1470813924      -34.5257733371  TIP3      7866            0.0000000000
     48514      8066  TIP3      H2            -12.2482271146       11.9452276144      -34.7831539446  TIP3      7866            0.0000000000
     48515      8067  TIP3      OH2           -10.9484289200       16.0493075022      -45.2432835937  TIP3      7867            0.0000000000
     48516      8067  TIP3      H1            -11.0067993124       15.9765902244      -46.2096020301  TIP3      7867            0.0000000000
     48517      8067  TIP3      H2            -10.9132147729       17.0077709491      -45.0752329724  TIP3      7867            0.0000000000
     48518      8068  TIP3      OH2           -17.2995402719       14.9393769941      -43.3874829046  TIP3      7868            0.0000000000
     48519      8068  TIP3      H1            -17.1448673360       14.5064055356      -42.5172390851  TIP3      7868            0.0000000000
     48520      8068  TIP3      H2            -18.1371500347       14.5221739725      -43.6456792623  TIP3      7868            0.0000000000
     48521      8069  TIP3      OH2            -7.9934520347       15.3258709996      -48.2119397219  TIP3      7869            0.0000000000
     48522      8069  TIP3      H1             -7.4993941669       14.5903349855      -48.6593518321  TIP3      7869            0.0000000000
     48523      8069  TIP3      H2             -7.8471256431       15.0226319577      -47.3011313873  TIP3      7869            0.0000000000
     48524      8070  TIP3      OH2            -8.2003515711       15.2148463934      -45.4267838807  TIP3      7870            0.0000000000
     48525      8070  TIP3      H1             -9.1644738436       15.2609565347      -45.2893715281  TIP3      7870            0.0000000000
     48526      8070  TIP3      H2             -7.9578799217       14.4415090253      -44.8992542709  TIP3      7870            0.0000000000
     48527      8071  TIP3      OH2            -5.1867234935        4.2312546622      -33.4284478245  TIP3      7871            0.0000000000
     48528      8071  TIP3      H1             -5.6697840975        4.6831391260      -34.1403842430  TIP3      7871            0.0000000000
     48529      8071  TIP3      H2             -5.2011443602        3.3122102914      -33.7349466154  TIP3      7871            0.0000000000
     48530      8072  TIP3      OH2           -18.0460106868       10.6424895437      -35.4244758886  TIP3      7872            0.0000000000
     48531      8072  TIP3      H1            -17.8237407447       10.2781668215      -34.5410806909  TIP3      7872            0.0000000000
     48532      8072  TIP3      H2            -18.9151068533       10.2438562957      -35.6344042523  TIP3      7872            0.0000000000
     48533      8073  TIP3      OH2           -15.3646303550       -0.8839883357      -39.4698159337  TIP3      7873            0.0000000000
     48534      8073  TIP3      H1            -16.2663156081       -1.0145955241      -39.8385243447  TIP3      7873            0.0000000000
     48535      8073  TIP3      H2            -15.5011353675       -0.0523843706      -38.9871416463  TIP3      7873            0.0000000000
     48536      8074  TIP3      OH2           -10.7197213649       -1.2197279350      -36.1127009776  TIP3      7874            0.0000000000
     48537      8074  TIP3      H1            -10.3253194189       -1.6379589001      -35.3239024462  TIP3      7874            0.0000000000
     48538      8074  TIP3      H2            -11.6917663434       -1.3336911192      -35.9649998875  TIP3      7874            0.0000000000
     48539      8075  TIP3      OH2            -7.4290667168        2.6345781862      -35.2008193832  TIP3      7875            0.0000000000
     48540      8075  TIP3      H1             -8.0020221116        2.4155340840      -34.4273604526  TIP3      7875            0.0000000000
     48541      8075  TIP3      H2             -7.6203668442        3.5571741969      -35.4390167879  TIP3      7875            0.0000000000
     48542      8076  TIP3      OH2            -6.4345787600        7.3329706367      -48.9177606825  TIP3      7876            0.0000000000
     48543      8076  TIP3      H1             -6.5745715897        7.2040193261      -49.8709851558  TIP3      7876            0.0000000000
     48544      8076  TIP3      H2             -5.6638080572        7.9168130502      -49.0564792266  TIP3      7876            0.0000000000
     48545      8077  TIP3      OH2           -11.0475028949        1.3826430467      -48.7676492487  TIP3      7877            0.0000000000
     48546      8077  TIP3      H1            -11.3980118144        1.3050260452      -47.8568010983  TIP3      7877            0.0000000000
     48547      8077  TIP3      H2            -11.3536551219        0.5289238449      -49.0992327018  TIP3      7877            0.0000000000
     48548      8078  TIP3      OH2           -15.2587292935        4.0949041408      -38.2075562623  TIP3      7878            0.0000000000
     48549      8078  TIP3      H1            -16.0012667743        4.0817874444      -37.5795391293  TIP3      7878            0.0000000000
     48550      8078  TIP3      H2            -15.3106310973        4.9997543900      -38.5913586476  TIP3      7878            0.0000000000
     48551      8079  TIP3      OH2           -15.3029263518        4.1994250646      -43.3512361865  TIP3      7879            0.0000000000
     48552      8079  TIP3      H1            -16.2422936812        3.9529975850      -43.4872771697  TIP3      7879            0.0000000000
     48553      8079  TIP3      H2            -14.9254597520        3.9165143877      -44.2095348075  TIP3      7879            0.0000000000
     48554      8080  TIP3      OH2            -9.7877594621        4.7104088634      -44.6033395529  TIP3      7880            0.0000000000
     48555      8080  TIP3      H1            -10.1682642460        5.5444304750      -44.9585605974  TIP3      7880            0.0000000000
     48556      8080  TIP3      H2             -9.0803963263        4.5378673230      -45.2501928912  TIP3      7880            0.0000000000
     48557      8081  TIP3      OH2           -10.7298090138        4.9197050326      -33.1474031913  TIP3      7881            0.0000000000
     48558      8081  TIP3      H1            -11.2565342989        4.1410950224      -32.8437595174  TIP3      7881            0.0000000000
     48559      8081  TIP3      H2             -9.8912427311        4.7969139495      -32.6714146952  TIP3      7881            0.0000000000
     48560      8082  TIP3      OH2            -8.7414890968        4.1947443864      -41.7393405692  TIP3      7882            0.0000000000
     48561      8082  TIP3      H1             -9.0325602195        4.7630937631      -42.4733054929  TIP3      7882            0.0000000000
     48562      8082  TIP3      H2             -8.6532815354        3.3492431893      -42.2217405464  TIP3      7882            0.0000000000
     48563      8083  TIP3      OH2           -17.6421664364        4.3374270273      -36.5408944266  TIP3      7883            0.0000000000
     48564      8083  TIP3      H1            -17.5567746997        4.7460022924      -35.6618873164  TIP3      7883            0.0000000000
     48565      8083  TIP3      H2            -18.0814209817        3.4988002284      -36.3279184368  TIP3      7883            0.0000000000
     48566      8084  TIP3      OH2           -14.2393565608        1.7222781195      -49.6740086502  TIP3      7884            0.0000000000
     48567      8084  TIP3      H1            -14.6843330777        1.3205370665      -48.9008674353  TIP3      7884            0.0000000000
     48568      8084  TIP3      H2            -14.9607447399        2.1177767851      -50.1739059499  TIP3      7884            0.0000000000
     48569      8085  TIP3      OH2           -20.9813812748        1.4483520728      -42.5481499709  TIP3      7885            0.0000000000
     48570      8085  TIP3      H1            -20.3013942572        1.4011266022      -41.8472894849  TIP3      7885            0.0000000000
     48571      8085  TIP3      H2            -20.5341838803        1.0750117406      -43.3310337864  TIP3      7885            0.0000000000
     48572      8086  TIP3      OH2           -19.7007339893        2.1671532601      -47.1778059055  TIP3      7886            0.0000000000
     48573      8086  TIP3      H1            -19.2069628856        2.7829624897      -47.7535422710  TIP3      7886            0.0000000000
     48574      8086  TIP3      H2            -20.3882961863        2.7946267578      -46.8734042675  TIP3      7886            0.0000000000
     48575      8087  TIP3      OH2            -9.5517452075        5.7831247237      -37.1846436404  TIP3      7887            0.0000000000
     48576      8087  TIP3      H1             -9.1756924062        5.0977360233      -37.7728571900  TIP3      7887            0.0000000000
     48577      8087  TIP3      H2            -10.0207774282        5.2543748590      -36.5143647890  TIP3      7887            0.0000000000
     48578      8088  TIP3      OH2           -12.7436018679        1.7661185589      -42.3512057224  TIP3      7888            0.0000000000
     48579      8088  TIP3      H1            -13.6765856613        1.7630315732      -42.0619209132  TIP3      7888            0.0000000000
     48580      8088  TIP3      H2            -12.2650507777        1.5882560456      -41.5271757314  TIP3      7888            0.0000000000
     48581      8089  TIP3      OH2           -17.9408961917        3.3094868065      -43.4791022855  TIP3      7889            0.0000000000
     48582      8089  TIP3      H1            -18.8234569978        3.4675776784      -43.8726168026  TIP3      7889            0.0000000000
     48583      8089  TIP3      H2            -17.6563661576        2.4765868234      -43.8908687094  TIP3      7889            0.0000000000
     48584      8090  TIP3      OH2           -14.2923075018        3.3631598447      -45.8372092460  TIP3      7890            0.0000000000
     48585      8090  TIP3      H1            -13.3348894737        3.4590670960      -45.6721118117  TIP3      7890            0.0000000000
     48586      8090  TIP3      H2            -14.5247537285        4.0260262444      -46.5170022148  TIP3      7890            0.0000000000
     48587      8091  TIP3      OH2            -8.3494557128        0.9949214860      -39.1136577740  TIP3      7891            0.0000000000
     48588      8091  TIP3      H1             -9.0329940350        1.0427971438      -38.4065445250  TIP3      7891            0.0000000000
     48589      8091  TIP3      H2             -8.8609630726        0.7377118985      -39.8933778017  TIP3      7891            0.0000000000
     48590      8092  TIP3      OH2           -15.5688876254        4.5536262848      -48.2449156631  TIP3      7892            0.0000000000
     48591      8092  TIP3      H1            -16.1633420152        4.1962105835      -48.9074001459  TIP3      7892            0.0000000000
     48592      8092  TIP3      H2            -14.7602770974        4.7547167663      -48.7398112474  TIP3      7892            0.0000000000
     48593      8093  TIP3      OH2            -5.1441320301       16.6366062353      -32.7833502680  TIP3      7893            0.0000000000
     48594      8093  TIP3      H1             -4.8771302738       17.0199290323      -33.6378872399  TIP3      7893            0.0000000000
     48595      8093  TIP3      H2             -4.4203326232       16.9568894700      -32.2241262856  TIP3      7893            0.0000000000
     48596      8094  TIP3      OH2           -17.4662856501        9.1070760868      -33.2110699842  TIP3      7894            0.0000000000
     48597      8094  TIP3      H1            -16.7460673482        9.3520848626      -32.6074422933  TIP3      7894            0.0000000000
     48598      8094  TIP3      H2            -18.2389429198        9.1852015697      -32.6094746936  TIP3      7894            0.0000000000
     48599      8095  TIP3      OH2           -11.4686605597        4.5172439664      -40.4572434536  TIP3      7895            0.0000000000
     48600      8095  TIP3      H1            -10.8664589049        3.9846963026      -40.9901935729  TIP3      7895            0.0000000000
     48601      8095  TIP3      H2            -11.6119448912        3.9676522208      -39.6748372580  TIP3      7895            0.0000000000
     48602      8096  TIP3      OH2           -16.4582369112        0.6592945919      -44.0184194961  TIP3      7896            0.0000000000
     48603      8096  TIP3      H1            -16.7678207896       -0.2654419858      -44.0347266242  TIP3      7896            0.0000000000
     48604      8096  TIP3      H2            -15.6629333354        0.5934540179      -44.5597167107  TIP3      7896            0.0000000000
     48605      8097  TIP3      OH2           -12.8287715303        2.8449325245      -38.0420322327  TIP3      7897            0.0000000000
     48606      8097  TIP3      H1            -13.6525346513        3.3636642828      -37.9543993247  TIP3      7897            0.0000000000
     48607      8097  TIP3      H2            -12.2721634971        3.1973535494      -37.3214885860  TIP3      7897            0.0000000000
     48608      8098  TIP3      OH2           -12.2287164470        9.0607684601      -46.3329718379  TIP3      7898            0.0000000000
     48609      8098  TIP3      H1            -13.0342005509        8.6075845482      -46.6614459421  TIP3      7898            0.0000000000
     48610      8098  TIP3      H2            -12.4539700038        9.1979728016      -45.3900979740  TIP3      7898            0.0000000000
     48611      8099  TIP3      OH2            -5.0474134385        8.2673830829      -37.5416954785  TIP3      7899            0.0000000000
     48612      8099  TIP3      H1             -4.4888137340        8.7544667548      -38.1747739439  TIP3      7899            0.0000000000
     48613      8099  TIP3      H2             -5.9097849173        8.3139822439      -38.0028134331  TIP3      7899            0.0000000000
     48614      8100  TIP3      OH2            -8.4539065098        1.9057584189      -47.9980387618  TIP3      7900            0.0000000000
     48615      8100  TIP3      H1             -9.3678532284        2.0603975480      -48.2764921320  TIP3      7900            0.0000000000
     48616      8100  TIP3      H2             -8.0995194788        2.8018976065      -47.8356569852  TIP3      7900            0.0000000000
     48617      8101  TIP3      OH2           -10.7466713856        9.3390723562      -35.0987865287  TIP3      7901            0.0000000000
     48618      8101  TIP3      H1            -11.0969986066        8.9084790371      -34.3125102419  TIP3      7901            0.0000000000
     48619      8101  TIP3      H2            -11.0040925781       10.2601258458      -34.9920777112  TIP3      7901            0.0000000000
     48620      8102  TIP3      OH2            -7.6749522809        3.8442891772      -46.4862829953  TIP3      7902            0.0000000000
     48621      8102  TIP3      H1             -6.7845895088        3.6561310024      -46.1171395602  TIP3      7902            0.0000000000
     48622      8102  TIP3      H2             -7.5602595407        4.6321808461      -47.0396262388  TIP3      7902            0.0000000000
     48623      8103  TIP3      OH2           -17.1257921128        8.4657501938      -40.5411739270  TIP3      7903            0.0000000000
     48624      8103  TIP3      H1            -16.4464230545        8.3794758682      -41.2376553363  TIP3      7903            0.0000000000
     48625      8103  TIP3      H2            -17.0704376887        7.6051399396      -40.0882795929  TIP3      7903            0.0000000000
     48626      8104  TIP3      OH2           -10.0992272550       10.5409221666      -47.2959704642  TIP3      7904            0.0000000000
     48627      8104  TIP3      H1            -10.4767870450       11.3815913009      -46.9671994389  TIP3      7904            0.0000000000
     48628      8104  TIP3      H2            -10.8571136699        9.9392465868      -47.1294470564  TIP3      7904            0.0000000000
     48629      8105  TIP3      OH2           -20.1506447199        6.8649906515      -35.2806689068  TIP3      7905            0.0000000000
     48630      8105  TIP3      H1            -19.9693383621        6.4177406835      -34.4303990492  TIP3      7905            0.0000000000
     48631      8105  TIP3      H2            -20.7639403611        6.2498118963      -35.7243319285  TIP3      7905            0.0000000000
     48632      8106  TIP3      OH2           -13.1265189295        6.4253615955      -33.1086363078  TIP3      7906            0.0000000000
     48633      8106  TIP3      H1            -13.4476309320        6.1139589679      -33.9671237738  TIP3      7906            0.0000000000
     48634      8106  TIP3      H2            -12.2047452875        6.0984702294      -33.1097694217  TIP3      7906            0.0000000000
     48635      8107  TIP3      OH2            -8.4395759185       11.7607462181      -35.1503543289  TIP3      7907            0.0000000000
     48636      8107  TIP3      H1             -9.3644144375       11.9402158593      -35.3885553330  TIP3      7907            0.0000000000
     48637      8107  TIP3      H2             -8.4736931608       12.0527965013      -34.2190385040  TIP3      7907            0.0000000000
     48638      8108  TIP3      OH2            -2.7399071385        3.9413114823      -46.7282787520  TIP3      7908            0.0000000000
     48639      8108  TIP3      H1             -3.3224136257        3.6727206503      -47.4737070118  TIP3      7908            0.0000000000
     48640      8108  TIP3      H2             -2.6807900927        4.8859550215      -46.9883094559  TIP3      7908            0.0000000000
     48641      8109  TIP3      OH2            -2.7973216428        9.7893004721      -33.9447918547  TIP3      7909            0.0000000000
     48642      8109  TIP3      H1             -3.6736973539       10.0239426034      -34.3388910616  TIP3      7909            0.0000000000
     48643      8109  TIP3      H2             -2.2375592702        9.7495944871      -34.7506665053  TIP3      7909            0.0000000000
     48644      8110  TIP3      OH2            -4.4668323216       12.7449613836      -46.3614116147  TIP3      7910            0.0000000000
     48645      8110  TIP3      H1             -4.8651400628       11.9221957677      -46.0632509483  TIP3      7910            0.0000000000
     48646      8110  TIP3      H2             -4.1925665900       12.5449618080      -47.2764239753  TIP3      7910            0.0000000000
     48647      8111  TIP3      OH2            -7.2773450028        7.5870668375      -39.2602199397  TIP3      7911            0.0000000000
     48648      8111  TIP3      H1             -8.2180152357        7.3768758147      -39.3682194692  TIP3      7911            0.0000000000
     48649      8111  TIP3      H2             -6.8495704057        6.8293003508      -39.6993047014  TIP3      7911            0.0000000000
     48650      8112  TIP3      OH2           -14.7547516549       11.9138779179      -43.1572322913  TIP3      7912            0.0000000000
     48651      8112  TIP3      H1            -14.2593637447       12.7216983415      -43.3621246818  TIP3      7912            0.0000000000
     48652      8112  TIP3      H2            -15.6333727374       12.1478499583      -43.4853089461  TIP3      7912            0.0000000000
     48653      8113  TIP3      OH2           -18.9316579905        6.7132533557      -48.5655833456  TIP3      7913            0.0000000000
     48654      8113  TIP3      H1            -18.3914873911        7.4164049634      -48.1661413448  TIP3      7913            0.0000000000
     48655      8113  TIP3      H2            -19.8362526617        7.0308987455      -48.3427835400  TIP3      7913            0.0000000000
     48656      8114  TIP3      OH2           -13.3391180042        9.5775281431      -43.6384394725  TIP3      7914            0.0000000000
     48657      8114  TIP3      H1            -13.6578853484       10.4988287204      -43.5579658104  TIP3      7914            0.0000000000
     48658      8114  TIP3      H2            -14.0590084401        9.0870464179      -43.1946953472  TIP3      7914            0.0000000000
     48659      8115  TIP3      OH2           -12.8899631855       13.7671169754      -37.2276149546  TIP3      7915            0.0000000000
     48660      8115  TIP3      H1            -12.4299237889       14.5701118343      -37.5168845055  TIP3      7915            0.0000000000
     48661      8115  TIP3      H2            -12.2741485406       13.4232810048      -36.5568114065  TIP3      7915            0.0000000000
     48662      8116  TIP3      OH2           -14.6586778160       14.5594303988      -44.0581439759  TIP3      7916            0.0000000000
     48663      8116  TIP3      H1            -15.6253401621       14.7021068368      -43.9611680659  TIP3      7916            0.0000000000
     48664      8116  TIP3      H2            -14.2960174816       15.4130103586      -43.7552200938  TIP3      7916            0.0000000000
     48665      8117  TIP3      OH2            -9.3748235697        9.7578971468      -37.6159749085  TIP3      7917            0.0000000000
     48666      8117  TIP3      H1             -9.6911762496        9.5701838149      -36.7076420560  TIP3      7917            0.0000000000
     48667      8117  TIP3      H2             -8.7287770555        9.0524972522      -37.7812998464  TIP3      7917            0.0000000000
     48668      8118  TIP3      OH2            -7.1162203466       10.7994059684      -48.4257000090  TIP3      7918            0.0000000000
     48669      8118  TIP3      H1             -6.7796855402       10.3042073537      -47.6612732861  TIP3      7918            0.0000000000
     48670      8118  TIP3      H2             -8.0581594166       10.6098956382      -48.3489216376  TIP3      7918            0.0000000000
     48671      8119  TIP3      OH2            -6.5488622765       14.3431995073      -35.1303384693  TIP3      7919            0.0000000000
     48672      8119  TIP3      H1             -7.2463640970       13.8612699563      -35.6140439300  TIP3      7919            0.0000000000
     48673      8119  TIP3      H2             -6.3643957570       15.0466474016      -35.7873601682  TIP3      7919            0.0000000000
     48674      8120  TIP3      OH2            -2.5608107339       15.2421870381      -48.3072342448  TIP3      7920            0.0000000000
     48675      8120  TIP3      H1             -1.8532202926       15.8930895810      -48.4534122151  TIP3      7920            0.0000000000
     48676      8120  TIP3      H2             -3.2818076859       15.8253078010      -47.9697303572  TIP3      7920            0.0000000000
     48677      8121  TIP3      OH2           -18.4888052141        1.5977268255      -35.7392651379  TIP3      7921            0.0000000000
     48678      8121  TIP3      H1            -19.3951851823        1.9510673970      -35.7551367995  TIP3      7921            0.0000000000
     48679      8121  TIP3      H2            -18.6004511993        0.7539352766      -35.2727905087  TIP3      7921            0.0000000000
     48680      8122  TIP3      OH2            -6.2435275343        9.4816548338      -46.2737292067  TIP3      7922            0.0000000000
     48681      8122  TIP3      H1             -6.4822830318        8.6677537507      -45.7908934982  TIP3      7922            0.0000000000
     48682      8122  TIP3      H2             -5.2913544752        9.5176825522      -46.1057793303  TIP3      7922            0.0000000000
     48683      8123  TIP3      OH2           -18.8787756370       13.3811277065      -37.3085990889  TIP3      7923            0.0000000000
     48684      8123  TIP3      H1            -18.5711831206       12.4613076109      -37.3004642722  TIP3      7923            0.0000000000
     48685      8123  TIP3      H2            -18.6143730467       13.6739012854      -36.4284906938  TIP3      7923            0.0000000000
     48686      8124  TIP3      OH2           -14.1087592810       11.4607298291      -47.5780691623  TIP3      7924            0.0000000000
     48687      8124  TIP3      H1            -13.8612367014       10.9190709438      -46.8226842411  TIP3      7924            0.0000000000
     48688      8124  TIP3      H2            -14.0634940668       12.3803938934      -47.2443340984  TIP3      7924            0.0000000000
     48689      8125  TIP3      OH2           -17.6190524285        8.6687880704      -47.1186902091  TIP3      7925            0.0000000000
     48690      8125  TIP3      H1            -18.3034751358        9.0814188164      -46.5582783800  TIP3      7925            0.0000000000
     48691      8125  TIP3      H2            -17.0802813331        9.4467661400      -47.3566507401  TIP3      7925            0.0000000000
     48692      8126  TIP3      OH2            -9.7576607693        1.3720757044      -36.7690605756  TIP3      7926            0.0000000000
     48693      8126  TIP3      H1             -9.0457185320        1.4328326967      -36.1243679396  TIP3      7926            0.0000000000
     48694      8126  TIP3      H2            -10.1405970754        0.4959302722      -36.5649603309  TIP3      7926            0.0000000000
     48695      8127  TIP3      OH2            -9.0362561322        0.9377656749      -45.6388426992  TIP3      7927            0.0000000000
     48696      8127  TIP3      H1             -8.7886071394        1.3923003376      -46.4737653853  TIP3      7927            0.0000000000
     48697      8127  TIP3      H2             -8.4304844464        1.3824111084      -45.0389935240  TIP3      7927            0.0000000000
     48698      8128  TIP3      OH2           -11.3152114076       13.1028235520      -46.8956991883  TIP3      7928            0.0000000000
     48699      8128  TIP3      H1            -12.1395833122       13.6081887539      -46.7913583658  TIP3      7928            0.0000000000
     48700      8128  TIP3      H2            -10.7985334507       13.6564599744      -47.4894516107  TIP3      7928            0.0000000000
     48701      8129  TIP3      OH2           -11.7743989092        2.6858324342      -44.8625956650  TIP3      7929            0.0000000000
     48702      8129  TIP3      H1            -11.0001054836        3.2819409797      -44.8305226068  TIP3      7929            0.0000000000
     48703      8129  TIP3      H2            -12.0421833452        2.5728205042      -43.9313616054  TIP3      7929            0.0000000000
     48704      8130  TIP3      OH2           -11.2144736350        3.7264828882      -35.6771522803  TIP3      7930            0.0000000000
     48705      8130  TIP3      H1            -11.1530661471        4.2754614739      -34.8719594143  TIP3      7930            0.0000000000
     48706      8130  TIP3      H2            -10.5650645251        3.0209303095      -35.5758112341  TIP3      7930            0.0000000000
     48707      8131  TIP3      OH2           -10.9333789827       -0.2538260995      -43.9814883584  TIP3      7931            0.0000000000
     48708      8131  TIP3      H1            -11.2555292618        0.4042980727      -43.3442155564  TIP3      7931            0.0000000000
     48709      8131  TIP3      H2            -10.2384951219        0.2926627308      -44.4279339784  TIP3      7931            0.0000000000
     48710      8132  TIP3      OH2           -13.9558939864       14.1563747977      -46.8128633254  TIP3      7932            0.0000000000
     48711      8132  TIP3      H1            -13.7745648180       14.9709089404      -47.3359427250  TIP3      7932            0.0000000000
     48712      8132  TIP3      H2            -14.2106336565       14.5105535631      -45.9393913980  TIP3      7932            0.0000000000
     48713      8133  TIP3      OH2           -15.2705072398        0.8893410328      -47.2314361506  TIP3      7933            0.0000000000
     48714      8133  TIP3      H1            -15.3164586843        1.7765421991      -46.8355961889  TIP3      7933            0.0000000000
     48715      8133  TIP3      H2            -14.3697601173        0.6170327646      -46.9790843420  TIP3      7933            0.0000000000
     48716      8134  TIP3      OH2            -5.0375845844        1.6054459238      -34.8393998182  TIP3      7934            0.0000000000
     48717      8134  TIP3      H1             -5.9795281521        1.8995651339      -34.9408898388  TIP3      7934            0.0000000000
     48718      8134  TIP3      H2             -4.7725908069        1.5640092806      -35.7657782634  TIP3      7934            0.0000000000
     48719      8135  TIP3      OH2            -6.4374256008        5.3798694900      -40.8192969853  TIP3      7935            0.0000000000
     48720      8135  TIP3      H1             -7.2644959545        4.9386574099      -41.1030847596  TIP3      7935            0.0000000000
     48721      8135  TIP3      H2             -5.9731546660        4.6913541906      -40.3053766648  TIP3      7935            0.0000000000
     48722      8136  TIP3      OH2           -16.9942976284       11.2516987771      -48.1120600764  TIP3      7936            0.0000000000
     48723      8136  TIP3      H1            -16.3617207826       11.9484304165      -47.9091686727  TIP3      7936            0.0000000000
     48724      8136  TIP3      H2            -16.5792925621       10.8823579575      -48.9227259336  TIP3      7936            0.0000000000
     48725      8137  TIP3      OH2           -18.6706219062        3.9758795415      -48.9561253574  TIP3      7937            0.0000000000
     48726      8137  TIP3      H1            -18.6828822638        4.9458404262      -48.8652920557  TIP3      7937            0.0000000000
     48727      8137  TIP3      H2            -19.5060345703        3.7742454902      -49.4166577667  TIP3      7937            0.0000000000
     48728      8138  TIP3      OH2            -5.3750939507       14.6396744135      -39.1500668457  TIP3      7938            0.0000000000
     48729      8138  TIP3      H1             -5.4618038695       15.3172211690      -39.8470122826  TIP3      7938            0.0000000000
     48730      8138  TIP3      H2             -4.4097740028       14.6884139135      -38.9774111859  TIP3      7938            0.0000000000
     48731      8139  TIP3      OH2           -17.8912352626       -1.2436233067      -40.3409493419  TIP3      7939            0.0000000000
     48732      8139  TIP3      H1            -18.0746869473       -1.2272293459      -41.3051997148  TIP3      7939            0.0000000000
     48733      8139  TIP3      H2            -18.3095754270       -2.1001683000      -40.0941429293  TIP3      7939            0.0000000000
     48734      8140  TIP3      OH2           -18.9258575250       12.6773536921      -44.1995375907  TIP3      7940            0.0000000000
     48735      8140  TIP3      H1            -19.7837415102       13.1232535153      -44.2404869899  TIP3      7940            0.0000000000
     48736      8140  TIP3      H2            -18.4414851582       13.1399621221      -44.8911382042  TIP3      7940            0.0000000000
     48737      8141  TIP3      OH2           -19.7185673387       15.3292845062      -32.9235309782  TIP3      7941            0.0000000000
     48738      8141  TIP3      H1            -19.1170767079       15.1284412076      -32.1778740799  TIP3      7941            0.0000000000
     48739      8141  TIP3      H2            -20.1225170381       14.4598376782      -33.0971584601  TIP3      7941            0.0000000000
     48740      8142  TIP3      OH2           -15.0373469063       14.2468812013      -31.3034795850  TIP3      7942            0.0000000000
     48741      8142  TIP3      H1            -14.2810790492       13.7463142640      -30.9738002659  TIP3      7942            0.0000000000
     48742      8142  TIP3      H2            -15.0659659403       13.9686250395      -32.2416005609  TIP3      7942            0.0000000000
     48743      8143  TIP3      OH2           -10.9894511656       13.6993553867      -49.9909982793  TIP3      7943            0.0000000000
     48744      8143  TIP3      H1            -11.6077338061       13.0517650412      -49.6377630480  TIP3      7943            0.0000000000
     48745      8143  TIP3      H2            -10.1946024685       13.1677490969      -50.1205973612  TIP3      7943            0.0000000000
     48746      8144  TIP3      OH2            -8.5301544450       12.6301695346      -32.5636937845  TIP3      7944            0.0000000000
     48747      8144  TIP3      H1             -8.8743010327       11.7519074904      -32.2995195453  TIP3      7944            0.0000000000
     48748      8144  TIP3      H2             -7.7727665839       12.7597257305      -31.9639423378  TIP3      7944            0.0000000000
     48749      8145  TIP3      OH2            -6.7478777837       13.3934738143      -49.3064648514  TIP3      7945            0.0000000000
     48750      8145  TIP3      H1             -6.1891986572       12.6698853932      -48.9765860477  TIP3      7945            0.0000000000
     48751      8145  TIP3      H2             -6.1054495181       13.8412111574      -49.9300053843  TIP3      7945            0.0000000000
     48752      8146  TIP3      OH2           -19.8138990003        9.1013314632      -31.9180188877  TIP3      7946            0.0000000000
     48753      8146  TIP3      H1            -19.6470916458        8.1896081098      -32.2186331898  TIP3      7946            0.0000000000
     48754      8146  TIP3      H2            -20.5528296585        9.3588252277      -32.4937056365  TIP3      7946            0.0000000000
     48755      8147  TIP3      OH2           -15.3897348330        9.3843141122      -49.8136319299  TIP3      7947            0.0000000000
     48756      8147  TIP3      H1            -15.3022070715        8.6236876449      -49.2291967047  TIP3      7947            0.0000000000
     48757      8147  TIP3      H2            -14.7036543368        9.2872563315      -50.4819734862  TIP3      7947            0.0000000000
     48758      8148  TIP3      OH2           -13.0940840272        9.0886631735      -32.5342428051  TIP3      7948            0.0000000000
     48759      8148  TIP3      H1            -13.4304259207        9.4029986390      -33.3970653565  TIP3      7948            0.0000000000
     48760      8148  TIP3      H2            -13.0229415725        8.1118317686      -32.6424889680  TIP3      7948            0.0000000000
     48761      8149  TIP3      OH2            -7.3987129256        8.9461121630      -35.1442667381  TIP3      7949            0.0000000000
     48762      8149  TIP3      H1             -6.6112868488        9.5297099354      -35.2002138483  TIP3      7949            0.0000000000
     48763      8149  TIP3      H2             -8.0981836647        9.6154643531      -35.1051207228  TIP3      7949            0.0000000000
     48764      8150  TIP3      OH2           -18.8873157109        6.3265680757      -32.5408444743  TIP3      7950            0.0000000000
     48765      8150  TIP3      H1            -18.4717472481        5.4630564608      -32.6293223257  TIP3      7950            0.0000000000
     48766      8150  TIP3      H2            -19.1210736694        6.3313122654      -31.5991498267  TIP3      7950            0.0000000000
     48767      8151  TIP3      OH2           -14.2815517144        7.4426697393      -47.4933812541  TIP3      7951            0.0000000000
     48768      8151  TIP3      H1            -14.7566218297        6.9427035781      -46.8080295306  TIP3      7951            0.0000000000
     48769      8151  TIP3      H2            -13.9340887283        6.7263612098      -48.0691846560  TIP3      7951            0.0000000000
     48770      8152  TIP3      OH2           -14.9927402451        5.2697821303      -35.1859780910  TIP3      7952            0.0000000000
     48771      8152  TIP3      H1            -15.5884414177        5.9917338774      -34.9291642942  TIP3      7952            0.0000000000
     48772      8152  TIP3      H2            -14.5937770314        5.6383174941      -35.9926111386  TIP3      7952            0.0000000000
     48773      8153  TIP3      OH2           -13.0812997157        5.6770627299      -49.1616546699  TIP3      7953            0.0000000000
     48774      8153  TIP3      H1            -13.3156648476        5.5490493523      -50.0976513447  TIP3      7953            0.0000000000
     48775      8153  TIP3      H2            -12.1072000266        5.7530678852      -49.1404843776  TIP3      7953            0.0000000000
     48776      8154  TIP3      OH2            -9.9078474243        7.8572966491      -31.8172302409  TIP3      7954            0.0000000000
     48777      8154  TIP3      H1             -8.9626001053        7.8119649770      -31.9909051544  TIP3      7954            0.0000000000
     48778      8154  TIP3      H2            -10.1022927483        7.0660565558      -31.2876298295  TIP3      7954            0.0000000000
     48779      8155  TIP3      OH2            -4.0702953676        7.7348200040       50.2270403438  TIP3      7955            0.0000000000
     48780      8155  TIP3      H1             -4.0113030989        7.5030551838       49.3012910175  TIP3      7955            0.0000000000
     48781      8155  TIP3      H2             -3.8711836395        8.7014096591       50.1262758187  TIP3      7955            0.0000000000
     48782      8156  TIP3      OH2           -14.5858200237        2.6483174832      -34.1286198621  TIP3      7956            0.0000000000
     48783      8156  TIP3      H1            -14.4692099630        1.9400715972      -34.7884362684  TIP3      7956            0.0000000000
     48784      8156  TIP3      H2            -14.6307180262        3.4597600736      -34.6768905721  TIP3      7956            0.0000000000
     48785      8157  TIP3      OH2           -14.1812386305        1.0307034388      -36.5730438537  TIP3      7957            0.0000000000
     48786      8157  TIP3      H1            -13.6735431043        1.4965314496      -37.2800129014  TIP3      7957            0.0000000000
     48787      8157  TIP3      H2            -15.0759327395        0.9563338661      -36.9773607083  TIP3      7957            0.0000000000
     48788      8158  TIP3      OH2           -12.6437168969        6.5238869625      -36.3314761351  TIP3      7958            0.0000000000
     48789      8158  TIP3      H1            -11.8897991377        6.3562345890      -36.9024608815  TIP3      7958            0.0000000000
     48790      8158  TIP3      H2            -13.0096069022        7.3561189430      -36.6689117780  TIP3      7958            0.0000000000
     48791      8159  TIP3      OH2            -8.2569588026        4.2669809712      -31.3877285966  TIP3      7959            0.0000000000
     48792      8159  TIP3      H1             -8.0109621944        3.3358092367      -31.4697841992  TIP3      7959            0.0000000000
     48793      8159  TIP3      H2             -7.3890303282        4.6965663812      -31.3690002380  TIP3      7959            0.0000000000
     48794      8160  TIP3      OH2            -6.8993418532        7.0913670748      -33.1671015337  TIP3      7960            0.0000000000
     48795      8160  TIP3      H1             -7.1668273035        7.7716771293      -33.8271828238  TIP3      7960            0.0000000000
     48796      8160  TIP3      H2             -5.9516742807        7.0216573659      -33.4065124485  TIP3      7960            0.0000000000
     48797      8161  TIP3      OH2           -16.1233854936        3.8997016368      -32.2078561143  TIP3      7961            0.0000000000
     48798      8161  TIP3      H1            -16.8930884734        3.3224568053      -32.3748213887  TIP3      7961            0.0000000000
     48799      8161  TIP3      H2            -15.4702673218        3.5302061224      -32.8301125650  TIP3      7961            0.0000000000
     48800      8162  TIP3      OH2           -13.3921891044       -1.5330530329      -36.1899954709  TIP3      7962            0.0000000000
     48801      8162  TIP3      H1            -13.5767787050       -0.5698933169      -36.2815417287  TIP3      7962            0.0000000000
     48802      8162  TIP3      H2            -14.1409823323       -1.8988693923      -36.6904465099  TIP3      7962            0.0000000000
     48803      8163  TIP3      OH2           -12.1229920471        2.7968896051      -32.5568780325  TIP3      7963            0.0000000000
     48804      8163  TIP3      H1            -12.4382414156        2.5640840233      -31.6616875796  TIP3      7963            0.0000000000
     48805      8163  TIP3      H2            -12.9042564620        2.5937644502      -33.0983296461  TIP3      7963            0.0000000000
     48806      8164  TIP3      OH2            -9.4027691551        1.9406386129      -33.4650427339  TIP3      7964            0.0000000000
     48807      8164  TIP3      H1            -10.3674306753        1.9956850464      -33.3544068391  TIP3      7964            0.0000000000
     48808      8164  TIP3      H2             -9.1385178553        1.3006515927      -32.7759587188  TIP3      7964            0.0000000000
     48809      8165  TIP3      OH2            -7.8195938410        0.5590181259      -31.5681803116  TIP3      7965            0.0000000000
     48810      8165  TIP3      H1             -7.8684925194       -0.4187498693      -31.5364649151  TIP3      7965            0.0000000000
     48811      8165  TIP3      H2             -8.0677139882        0.8531492128      -30.6691300960  TIP3      7965            0.0000000000
     48812      8166  TIP3      OH2           -18.0505451532        1.8377239505      -32.4505065739  TIP3      7966            0.0000000000
     48813      8166  TIP3      H1            -17.7990847354        1.1017967705      -33.0357208872  TIP3      7966            0.0000000000
     48814      8166  TIP3      H2            -18.1373420106        1.3896943765      -31.5863505515  TIP3      7966            0.0000000000
     48815      8167  TIP3      OH2           -13.1798786154       -2.1387449252      -33.4852573811  TIP3      7967            0.0000000000
     48816      8167  TIP3      H1            -12.4993492938       -2.8412331292      -33.5005659987  TIP3      7967            0.0000000000
     48817      8167  TIP3      H2            -13.2932618810       -1.9968341095      -34.4454795797  TIP3      7967            0.0000000000
     48818      8168  TIP3      OH2           -12.8168590136       -0.5261007204      -31.3667698980  TIP3      7968            0.0000000000
     48819      8168  TIP3      H1            -12.9908198057       -1.0318494287      -32.1992404041  TIP3      7968            0.0000000000
     48820      8168  TIP3      H2            -13.4160225790        0.2387867367      -31.4676301961  TIP3      7968            0.0000000000
     48821      8169  TIP3      OH2           -13.3406422105       16.3890995653      -48.2041397090  TIP3      7969            0.0000000000
     48822      8169  TIP3      H1            -12.3697288281       16.4887496067      -48.1291120247  TIP3      7969            0.0000000000
     48823      8169  TIP3      H2            -13.5446569760       17.0104488666      -48.9127666470  TIP3      7969            0.0000000000
     48824      8170  TIP3      OH2           -19.7058240478       10.9528117662      -48.6385181451  TIP3      7970            0.0000000000
     48825      8170  TIP3      H1            -18.7395302188       11.0576508246      -48.4962710154  TIP3      7970            0.0000000000
     48826      8170  TIP3      H2            -19.7165034483       10.3539767721      -49.3996359769  TIP3      7970            0.0000000000
     48827      8171  TIP3      OH2           -21.0153441162       16.3437990140      -43.7587397076  TIP3      7971            0.0000000000
     48828      8171  TIP3      H1            -21.7346454972       15.8594416395      -44.2212626211  TIP3      7971            0.0000000000
     48829      8171  TIP3      H2            -20.7426109877       15.6942090920      -43.0852200659  TIP3      7971            0.0000000000
     48830      8172  TIP3      OH2           -20.1902701853       14.4855442820      -41.8793974547  TIP3      7972            0.0000000000
     48831      8172  TIP3      H1            -20.5446219608       13.6062394355      -41.6832486656  TIP3      7972            0.0000000000
     48832      8172  TIP3      H2            -19.9652959185       14.8142725885      -40.9941756540  TIP3      7972            0.0000000000
     48833      8173  TIP3      OH2            -2.6536622473       15.2792393184      -38.9548928677  TIP3      7973            0.0000000000
     48834      8173  TIP3      H1             -2.6231129493       15.4390682961      -37.9955907325  TIP3      7973            0.0000000000
     48835      8173  TIP3      H2             -1.9500479939       15.8623827179      -39.2574975391  TIP3      7973            0.0000000000
     48836      8174  TIP3      OH2            -3.0827833881       14.8773453558      -36.0086021216  TIP3      7974            0.0000000000
     48837      8174  TIP3      H1             -3.5523339135       14.1046811647      -36.3896840138  TIP3      7974            0.0000000000
     48838      8174  TIP3      H2             -2.5916801706       14.4319995216      -35.2997783324  TIP3      7974            0.0000000000
     48839      8175  TIP3      OH2            -4.6338167290       10.5270440164      -31.1581819013  TIP3      7975            0.0000000000
     48840      8175  TIP3      H1             -5.5947766174       10.6547304000      -31.0638793290  TIP3      7975            0.0000000000
     48841      8175  TIP3      H2             -4.2704815146       11.4232188674      -30.9755843446  TIP3      7975            0.0000000000
     48842      8176  TIP3      OH2            -3.3236584451        8.9335924561      -45.8907896761  TIP3      7976            0.0000000000
     48843      8176  TIP3      H1             -2.4515947690        9.3177587510      -45.7122122004  TIP3      7976            0.0000000000
     48844      8176  TIP3      H2             -3.3311796699        8.2062019605      -45.2318667674  TIP3      7976            0.0000000000
     48845      8177  TIP3      OH2            -2.9646423809        7.0185876025      -44.0106016869  TIP3      7977            0.0000000000
     48846      8177  TIP3      H1             -3.7108129589        6.4958165273      -43.6373182334  TIP3      7977            0.0000000000
     48847      8177  TIP3      H2             -2.3645213628        7.1310418050      -43.2492910427  TIP3      7977            0.0000000000
     48848      8178  TIP3      OH2            -3.2026697618        9.6935504433      -39.0328137610  TIP3      7978            0.0000000000
     48849      8178  TIP3      H1             -2.3911197673        9.3197986399      -39.4149838437  TIP3      7978            0.0000000000
     48850      8178  TIP3      H2             -3.0590588193       10.6487090291      -39.2068244662  TIP3      7978            0.0000000000
     48851      8179  TIP3      OH2            -4.6454176767       12.5979925032      -36.7623970268  TIP3      7979            0.0000000000
     48852      8179  TIP3      H1             -5.3352944452       12.9445083025      -36.1784809317  TIP3      7979            0.0000000000
     48853      8179  TIP3      H2             -5.1929138328       12.1994743125      -37.4734276377  TIP3      7979            0.0000000000
     48854      8180  TIP3      OH2            -2.6295514653        6.8643543342      -47.6331819197  TIP3      7980            0.0000000000
     48855      8180  TIP3      H1             -3.2289526908        7.1692740590      -48.3516061171  TIP3      7980            0.0000000000
     48856      8180  TIP3      H2             -2.7634606063        7.5600245167      -46.9599222235  TIP3      7980            0.0000000000
     48857      8181  TIP3      OH2            -4.3319650941        4.1278170262      -48.7686449424  TIP3      7981            0.0000000000
     48858      8181  TIP3      H1             -4.1680515222        4.7490958491      -49.5085053642  TIP3      7981            0.0000000000
     48859      8181  TIP3      H2             -4.2835494685        3.2806834091      -49.2550649848  TIP3      7981            0.0000000000
     48860      8182  TIP3      OH2            -5.1360073144        5.4724051434      -43.4331610986  TIP3      7982            0.0000000000
     48861      8182  TIP3      H1             -5.2858019963        4.5186050323      -43.4866195005  TIP3      7982            0.0000000000
     48862      8182  TIP3      H2             -5.4703660892        5.6868814005      -42.5452763369  TIP3      7982            0.0000000000
     48863      8183  TIP3      OH2           -20.1338918657        7.5620789339      -39.3875447725  TIP3      7983            0.0000000000
     48864      8183  TIP3      H1            -19.9578567579        7.4786887170      -40.3508285007  TIP3      7983            0.0000000000
     48865      8183  TIP3      H2            -19.2404974687        7.3819918245      -39.0357732760  TIP3      7983            0.0000000000
     48866      8184  TIP3      OH2            -4.2791104700        7.4454082232      -33.6956193415  TIP3      7984            0.0000000000
     48867      8184  TIP3      H1             -3.6693305243        6.6773926388      -33.6478296725  TIP3      7984            0.0000000000
     48868      8184  TIP3      H2             -3.6678489697        8.2065437642      -33.7856228301  TIP3      7984            0.0000000000
     48869      8185  TIP3      OH2            -2.7892126817        5.3240922359      -33.0752258626  TIP3      7985            0.0000000000
     48870      8185  TIP3      H1             -3.6593791132        4.9146306010      -33.2721195473  TIP3      7985            0.0000000000
     48871      8185  TIP3      H2             -2.2087260886        4.5522673547      -33.1837678514  TIP3      7985            0.0000000000
     48872      8186  TIP3      OH2            -5.0577442713        1.4031566326      -49.9530867088  TIP3      7986            0.0000000000
     48873      8186  TIP3      H1             -4.4680963536        1.0001816627      -49.2907590318  TIP3      7986            0.0000000000
     48874      8186  TIP3      H2             -5.9381840985        1.0580542385      -49.7486463352  TIP3      7986            0.0000000000
     48875      8187  TIP3      OH2            -5.4852009183        3.0413780082      -45.0061149527  TIP3      7987            0.0000000000
     48876      8187  TIP3      H1             -5.1769433670        2.1171872451      -44.8626387629  TIP3      7987            0.0000000000
     48877      8187  TIP3      H2             -4.6861662358        3.4486676660      -45.3717079590  TIP3      7987            0.0000000000
     48878      8188  TIP3      OH2            -4.8018069363        3.5578884057      -39.5359497647  TIP3      7988            0.0000000000
     48879      8188  TIP3      H1             -3.8813009073        3.8889413347      -39.5620217450  TIP3      7988            0.0000000000
     48880      8188  TIP3      H2             -5.0479694326        3.7630458729      -38.6175355685  TIP3      7988            0.0000000000
     48881      8189  TIP3      OH2            -4.7702739188        4.3327556008      -36.7902018991  TIP3      7989            0.0000000000
     48882      8189  TIP3      H1             -5.6525236271        4.6080986309      -36.4455241546  TIP3      7989            0.0000000000
     48883      8189  TIP3      H2             -4.3493959201        5.2044207222      -36.9798373841  TIP3      7989            0.0000000000
     48884      8190  TIP3      OH2           -20.5149851243        2.8641393270      -33.2272193152  TIP3      7990            0.0000000000
     48885      8190  TIP3      H1            -19.5781818004        2.6472011554      -33.0430334704  TIP3      7990            0.0000000000
     48886      8190  TIP3      H2            -20.9731519274        2.0370344618      -32.9625383118  TIP3      7990            0.0000000000
     48887      8191  TIP3      OH2            -2.4982556674       -1.6092178419      -31.4293401481  TIP3      7991            0.0000000000
     48888      8191  TIP3      H1             -2.1417483468       -2.2727177113      -32.0474740172  TIP3      7991            0.0000000000
     48889      8191  TIP3      H2             -2.3907026562       -0.7972500764      -31.9617069720  TIP3      7991            0.0000000000
     48890      8192  TIP3      OH2            -4.7912168230        0.3368132635      -44.9411579850  TIP3      7992            0.0000000000
     48891      8192  TIP3      H1             -4.5894297654       -0.0970010012      -44.0862113928  TIP3      7992            0.0000000000
     48892      8192  TIP3      H2             -5.4115079337       -0.2870439573      -45.3812282608  TIP3      7992            0.0000000000
     48893      8193  TIP3      OH2           -19.3231879193        1.1487978623      -40.3798723268  TIP3      7993            0.0000000000
     48894      8193  TIP3      H1            -18.8546446265        0.3259992541      -40.1270829381  TIP3      7993            0.0000000000
     48895      8193  TIP3      H2            -18.7665924645        1.8412652944      -39.9977163484  TIP3      7993            0.0000000000
     48896      8194  TIP3      OH2           -21.0346903752        4.1533446360      -39.3506811092  TIP3      7994            0.0000000000
     48897      8194  TIP3      H1            -20.4708880664        3.9015807468      -40.1103218238  TIP3      7994            0.0000000000
     48898      8194  TIP3      H2            -20.5656580262        4.9561199505      -39.0809329522  TIP3      7994            0.0000000000
     48899      8195  TIP3      OH2            -2.9658684811        0.4974303835      -33.0940577229  TIP3      7995            0.0000000000
     48900      8195  TIP3      H1             -3.9058472375        0.7598971259      -33.1329706493  TIP3      7995            0.0000000000
     48901      8195  TIP3      H2             -2.9518662780       -0.0861699254      -33.8637164761  TIP3      7995            0.0000000000
     48902      8196  TIP3      OH2            -2.9581862425        0.3897047401      -48.3607132066  TIP3      7996            0.0000000000
     48903      8196  TIP3      H1             -2.5464896380       -0.2890754709      -48.9140331447  TIP3      7996            0.0000000000
     48904      8196  TIP3      H2             -2.2647542404        1.0696062672      -48.3745171118  TIP3      7996            0.0000000000
     48905      8197  TIP3      OH2           -20.6618865338        0.4237941205      -45.2764026020  TIP3      7997            0.0000000000
     48906      8197  TIP3      H1            -21.6060996944        0.5955711717      -45.4178956409  TIP3      7997            0.0000000000
     48907      8197  TIP3      H2            -20.2549833594        0.9057298454      -46.0138805851  TIP3      7997            0.0000000000
     48908      8198  TIP3      OH2            -5.9267688719       15.3585540035      -43.3437307931  TIP3      7998            0.0000000000
     48909      8198  TIP3      H1             -5.2483449958       15.0514841061      -43.9661430971  TIP3      7998            0.0000000000
     48910      8198  TIP3      H2             -5.4171741717       15.8536049375      -42.6826262764  TIP3      7998            0.0000000000
     48911      8199  TIP3      OH2           -20.7235384155       -0.9360098387      -36.9859399858  TIP3      7999            0.0000000000
     48912      8199  TIP3      H1            -21.3886399358       -1.1280331261      -36.3008628747  TIP3      7999            0.0000000000
     48913      8199  TIP3      H2            -21.1801895870       -0.2608201095      -37.5219930467  TIP3      7999            0.0000000000
     48914      8200  TIP3      OH2           -18.4774835800       12.2549262230      -32.8185618907  TIP3      8000            0.0000000000
     48915      8200  TIP3      H1            -19.3138766310       12.4793877756      -33.2588708427  TIP3      8000            0.0000000000
     48916      8200  TIP3      H2            -18.7489133708       12.1877962934      -31.9004205594  TIP3      8000            0.0000000000
     48917      8201  TIP3      OH2           -15.5815703239       13.2733499568      -36.5391395326  TIP3      8001            0.0000000000
     48918      8201  TIP3      H1            -15.9091803178       14.1410164652      -36.8122043359  TIP3      8001            0.0000000000
     48919      8201  TIP3      H2            -14.6549179152       13.3551141220      -36.8450226303  TIP3      8001            0.0000000000
     48920      8202  TIP3      OH2           -11.2607532350       14.6963862203      -33.6388601496  TIP3      8002            0.0000000000
     48921      8202  TIP3      H1            -11.1238103007       14.3416682921      -32.7296549426  TIP3      8002            0.0000000000
     48922      8202  TIP3      H2            -10.3575874322       14.9978627497      -33.8790447861  TIP3      8002            0.0000000000
     48923      8203  TIP3      OH2            -8.9734048063       15.9605185630      -34.3261730100  TIP3      8003            0.0000000000
     48924      8203  TIP3      H1             -8.2421267745       15.3774523726      -34.5637867977  TIP3      8003            0.0000000000
     48925      8203  TIP3      H2             -8.5987656218       16.4014018441      -33.5321949972  TIP3      8003            0.0000000000
     48926      8204  TIP3      OH2            -3.9291937385       -1.4064186261      -35.2560754223  TIP3      8004            0.0000000000
     48927      8204  TIP3      H1             -4.7942508922       -1.1418897698      -35.6180536275  TIP3      8004            0.0000000000
     48928      8204  TIP3      H2             -3.7995580303       -2.2663058471      -35.7220988269  TIP3      8004            0.0000000000
     48929      8205  TIP3      OH2           -18.1568815608       16.5069197043      -36.5489211255  TIP3      8005            0.0000000000
     48930      8205  TIP3      H1            -18.8889564921       17.0086879575      -36.9432686198  TIP3      8005            0.0000000000
     48931      8205  TIP3      H2            -18.4656960897       16.3166654888      -35.6514068327  TIP3      8005            0.0000000000
     48932      8206  TIP3      OH2           -15.6896202360       16.0828030271      -37.4732611136  TIP3      8006            0.0000000000
     48933      8206  TIP3      H1            -16.5813786097       16.2369384182      -37.0807036876  TIP3      8006            0.0000000000
     48934      8206  TIP3      H2            -15.7423614890       16.6737626063      -38.2473354971  TIP3      8006            0.0000000000
     48935      8207  TIP3      OH2           -10.9816412221       15.9938694804      -38.3025465136  TIP3      8007            0.0000000000
     48936      8207  TIP3      H1            -11.4439266001       16.5539292262      -38.9493753546  TIP3      8007            0.0000000000
     48937      8207  TIP3      H2            -10.8509807340       16.6287305216      -37.5656613421  TIP3      8007            0.0000000000
     48938      8208  TIP3      OH2            -8.6962511470       14.8033138466      -37.2698143118  TIP3      8008            0.0000000000
     48939      8208  TIP3      H1             -9.5474416861       15.0831508318      -37.6445638149  TIP3      8008            0.0000000000
     48940      8208  TIP3      H2             -8.2071842026       15.6390813309      -37.3647966422  TIP3      8008            0.0000000000
     48941      8209  TIP3      OH2            -6.1119406065       16.3748483348      -37.0547776920  TIP3      8009            0.0000000000
     48942      8209  TIP3      H1             -6.1629134172       17.3343173547      -37.2821459224  TIP3      8009            0.0000000000
     48943      8209  TIP3      H2             -5.8940445913       15.9997415636      -37.9317275941  TIP3      8009            0.0000000000
     48944      8210  TIP3      OH2           -18.6924018329       15.1538449864      -39.6046321526  TIP3      8010            0.0000000000
     48945      8210  TIP3      H1            -18.7653492074       14.6865707934      -38.7466427354  TIP3      8010            0.0000000000
     48946      8210  TIP3      H2            -17.8793846460       14.7764704750      -39.9963285737  TIP3      8010            0.0000000000
     48947      8211  TIP3      OH2           -16.6207913327       13.8661238871      -40.9486653250  TIP3      8011            0.0000000000
     48948      8211  TIP3      H1            -16.7841761892       12.9325951196      -40.7152323311  TIP3      8011            0.0000000000
     48949      8211  TIP3      H2            -15.7649839441       14.0230800877      -40.4974028500  TIP3      8011            0.0000000000
     48950      8212  TIP3      OH2           -14.0116109278       14.3546365429      -40.0694627300  TIP3      8012            0.0000000000
     48951      8212  TIP3      H1            -13.8628352313       13.4287359566      -40.3347075904  TIP3      8012            0.0000000000
     48952      8212  TIP3      H2            -13.9721633585       14.2959239639      -39.1048822001  TIP3      8012            0.0000000000
     48953      8213  TIP3      OH2           -10.5651228980        0.0043120539      -40.9415876731  TIP3      8013            0.0000000000
     48954      8213  TIP3      H1            -11.2400084290       -0.6354202102      -40.6546245034  TIP3      8013            0.0000000000
     48955      8213  TIP3      H2            -10.0132339234       -0.5349138698      -41.5183681430  TIP3      8013            0.0000000000
     48956      8214  TIP3      OH2            -5.4165994678       -1.9260672959      -40.8520419667  TIP3      8014            0.0000000000
     48957      8214  TIP3      H1             -4.8167230012       -1.3617407737      -41.3974183055  TIP3      8014            0.0000000000
     48958      8214  TIP3      H2             -6.3037070985       -1.5902090969      -41.0955902818  TIP3      8014            0.0000000000
     48959      8215  TIP3      OH2            -3.7460635645       -0.7136696613      -42.5591390128  TIP3      8015            0.0000000000
     48960      8215  TIP3      H1             -3.0865726242       -1.2900088184      -43.0210931162  TIP3      8015            0.0000000000
     48961      8215  TIP3      H2             -3.2518329971        0.1342777794      -42.5190834260  TIP3      8015            0.0000000000
     48962      8216  TIP3      OH2           -18.1945939544       -1.3746096337      -43.0893597973  TIP3      8016            0.0000000000
     48963      8216  TIP3      H1            -18.9926770609       -1.5827997283      -43.6128288196  TIP3      8016            0.0000000000
     48964      8216  TIP3      H2            -17.7334215452       -2.2357957948      -43.1407807601  TIP3      8016            0.0000000000
     48965      8217  TIP3      OH2           -19.4454979793       -1.6181067324      -47.4085864209  TIP3      8017            0.0000000000
     48966      8217  TIP3      H1            -18.9146626128       -0.9420829945      -47.8752968076  TIP3      8017            0.0000000000
     48967      8217  TIP3      H2            -19.9642240506       -1.0617744853      -46.8006575888  TIP3      8017            0.0000000000
     48968      8218  TIP3      OH2           -13.7252981673       -1.4474728722      -43.3008233153  TIP3      8018            0.0000000000
     48969      8218  TIP3      H1            -12.8245636156       -1.0898710204      -43.3740546500  TIP3      8018            0.0000000000
     48970      8218  TIP3      H2            -13.7600232489       -1.6675468517      -42.3697960543  TIP3      8018            0.0000000000
     48971      8219  TIP3      OH2            -8.0033465653       -1.4297078495      -41.6767060912  TIP3      8019            0.0000000000
     48972      8219  TIP3      H1             -8.0616903480       -1.3148411375      -42.6343188005  TIP3      8019            0.0000000000
     48973      8219  TIP3      H2             -8.3946686812       -2.3285024476      -41.5427046748  TIP3      8019            0.0000000000
     48974      8220  TIP3      OH2            -6.7234678663       -1.4025877049      -46.0036559433  TIP3      8020            0.0000000000
     48975      8220  TIP3      H1             -7.4718804567       -0.8117081987      -46.1790067931  TIP3      8020            0.0000000000
     48976      8220  TIP3      H2             -7.1773125632       -2.2494919721      -45.7886263718  TIP3      8020            0.0000000000
     48977      8221  TIP3      OH2           -19.4630346905       14.3375044670      -46.4318730724  TIP3      8021            0.0000000000
     48978      8221  TIP3      H1            -20.2081343485       14.3194420942      -47.0511097089  TIP3      8021            0.0000000000
     48979      8221  TIP3      H2            -19.5048248082       15.2708613349      -46.1641421304  TIP3      8021            0.0000000000
     48980      8222  TIP3      OH2           -17.6193870255        0.2852987082      -48.8476238416  TIP3      8022            0.0000000000
     48981      8222  TIP3      H1            -17.0878969579       -0.3463960935      -49.3434064762  TIP3      8022            0.0000000000
     48982      8222  TIP3      H2            -16.9600960818        0.6537657884      -48.2312771576  TIP3      8022            0.0000000000
     48983      8223  TIP3      OH2           -12.5476847528        0.5866744301      -46.4588904998  TIP3      8023            0.0000000000
     48984      8223  TIP3      H1            -12.3166340117       -0.0097819338      -45.7284188471  TIP3      8023            0.0000000000
     48985      8223  TIP3      H2            -12.5120204721        1.4350739696      -45.9628973982  TIP3      8023            0.0000000000
     48986      8224  TIP3      OH2           -10.6436740100       15.6343910916      -48.0161515656  TIP3      8024            0.0000000000
     48987      8224  TIP3      H1             -9.7072307973       15.8881415007      -48.1888470803  TIP3      8024            0.0000000000
     48988      8224  TIP3      H2            -10.8277642881       15.1360128238      -48.8367060638  TIP3      8024            0.0000000000
     48989      8225  TIP3      OH2            -3.9129766512       15.1476856725      -45.3114915718  TIP3      8025            0.0000000000
     48990      8225  TIP3      H1             -4.1528837150       14.3620804394      -45.8590456293  TIP3      8025            0.0000000000
     48991      8225  TIP3      H2             -4.0372443140       15.8898939896      -45.9320033621  TIP3      8025            0.0000000000
     48992      8226  TIP3      OH2           -18.3086928249       -0.8293960527      -33.6377275762  TIP3      8026            0.0000000000
     48993      8226  TIP3      H1            -18.6984506437       -1.6247582997      -33.2327784315  TIP3      8026            0.0000000000
     48994      8226  TIP3      H2            -17.4002273907       -0.8727070662      -33.2540328656  TIP3      8026            0.0000000000
     48995      8227  TIP3      OH2           -16.3085799977       -1.4472632903      -31.9907240383  TIP3      8027            0.0000000000
     48996      8227  TIP3      H1            -15.4152890371       -1.7835949084      -32.2076636672  TIP3      8027            0.0000000000
     48997      8227  TIP3      H2            -16.6824468606       -2.2536719856      -31.5845063651  TIP3      8027            0.0000000000
     48998      8228  TIP3      OH2           -17.3633510895       15.5306559554      -49.0873032437  TIP3      8028            0.0000000000
     48999      8228  TIP3      H1            -17.9321335360       15.5433282788      -48.3127222488  TIP3      8028            0.0000000000
     49000      8228  TIP3      H2            -16.8713616513       14.6993933412      -49.0581851207  TIP3      8028            0.0000000000
     49001      8229  TIP3      OH2            -7.9063526404       -2.1623343845      -31.8446992672  TIP3      8029            0.0000000000
     49002      8229  TIP3      H1             -7.8126535058       -2.6346895502      -30.9942308962  TIP3      8029            0.0000000000
     49003      8229  TIP3      H2             -6.9885123284       -2.1938777511      -32.1854879107  TIP3      8029            0.0000000000
     49004      8230  TIP3      OH2            -4.6928115449       13.8927938130      -33.2171561808  TIP3      8030            0.0000000000
     49005      8230  TIP3      H1             -5.4993841220       13.7563072175      -33.7606869459  TIP3      8030            0.0000000000
     49006      8230  TIP3      H2             -4.8109371246       14.8387718563      -32.9956566170  TIP3      8030            0.0000000000
     49007      8231  TIP3      OH2             9.7522326688        7.7712794766      -43.2445962246  TIP3      8031            0.0000000000
     49008      8231  TIP3      H1              9.7342811424        8.7513258832      -43.2676920154  TIP3      8031            0.0000000000
     49009      8231  TIP3      H2              9.0176828854        7.5354534859      -43.8332101656  TIP3      8031            0.0000000000
     49010      8232  TIP3      OH2             8.5968831445        7.0190136958      -39.7246673092  TIP3      8032            0.0000000000
     49011      8232  TIP3      H1              8.5890351364        6.3699837917      -39.0093530605  TIP3      8032            0.0000000000
     49012      8232  TIP3      H2              8.2549269806        6.5120139701      -40.4792972824  TIP3      8032            0.0000000000
     49013      8233  TIP3      OH2             0.9552204574        6.6753468665      -38.1838308424  TIP3      8033            0.0000000000
     49014      8233  TIP3      H1              1.0478758985        6.0158720868      -37.4698498829  TIP3      8033            0.0000000000
     49015      8233  TIP3      H2              1.6936537328        7.2631078654      -37.9645072273  TIP3      8033            0.0000000000
     49016      8234  TIP3      OH2            12.2883516330        9.9692583290      -41.4423920435  TIP3      8034            0.0000000000
     49017      8234  TIP3      H1             11.8830876265        9.2501938196      -40.9477822157  TIP3      8034            0.0000000000
     49018      8234  TIP3      H2             12.3168910097       10.6774091418      -40.7721524749  TIP3      8034            0.0000000000
     49019      8235  TIP3      OH2             1.8822609376       11.1475819126      -39.6787020515  TIP3      8035            0.0000000000
     49020      8235  TIP3      H1              1.5739815846       10.2770556561      -39.9942351646  TIP3      8035            0.0000000000
     49021      8235  TIP3      H2              2.8379515143       10.9651274514      -39.6321188900  TIP3      8035            0.0000000000
     49022      8236  TIP3      OH2            -1.4843061545        4.7031900703      -44.1913256383  TIP3      8036            0.0000000000
     49023      8236  TIP3      H1             -1.9165128446        5.5753364297      -44.2490017012  TIP3      8036            0.0000000000
     49024      8236  TIP3      H2             -2.0377457850        4.1629837190      -44.7695476497  TIP3      8036            0.0000000000
     49025      8237  TIP3      OH2            -0.7639844976        6.9320026388      -42.0392239091  TIP3      8037            0.0000000000
     49026      8237  TIP3      H1             -0.4819694162        6.1178628775      -41.5892412768  TIP3      8037            0.0000000000
     49027      8237  TIP3      H2             -0.0734164902        7.0405559470      -42.7101835773  TIP3      8037            0.0000000000
     49028      8238  TIP3      OH2             9.4156243292       15.1326994276      -41.2025150652  TIP3      8038            0.0000000000
     49029      8238  TIP3      H1             10.0595053809       14.4411416154      -41.4940776471  TIP3      8038            0.0000000000
     49030      8238  TIP3      H2              9.1928859760       14.7904728695      -40.3372529362  TIP3      8038            0.0000000000
     49031      8239  TIP3      OH2             6.9799923460        9.4179175524      -39.2546352987  TIP3      8039            0.0000000000
     49032      8239  TIP3      H1              7.3171093899        8.7941224192      -39.9153977020  TIP3      8039            0.0000000000
     49033      8239  TIP3      H2              7.7914849147        9.5788409854      -38.7419952823  TIP3      8039            0.0000000000
     49034      8240  TIP3      OH2            15.5706395674        1.0838974617      -38.5380557420  TIP3      8040            0.0000000000
     49035      8240  TIP3      H1             15.7445698523        1.6623162373      -37.7656144630  TIP3      8040            0.0000000000
     49036      8240  TIP3      H2             16.1442398071        1.5072731119      -39.1930965009  TIP3      8040            0.0000000000
     49037      8241  TIP3      OH2            10.1465546616        3.8902952015      -38.9425108248  TIP3      8041            0.0000000000
     49038      8241  TIP3      H1             10.3151137466        2.9314394142      -38.9370472103  TIP3      8041            0.0000000000
     49039      8241  TIP3      H2             10.0444870372        4.0293136435      -39.9038704674  TIP3      8041            0.0000000000
     49040      8242  TIP3      OH2             3.2204423344        1.9820455767      -41.7143340403  TIP3      8042            0.0000000000
     49041      8242  TIP3      H1              3.3668234163        2.8082557850      -42.2126716975  TIP3      8042            0.0000000000
     49042      8242  TIP3      H2              2.8805942210        1.4018691294      -42.4303817834  TIP3      8042            0.0000000000
     49043      8243  TIP3      OH2            11.0001927604        2.0604448579      -43.3587376356  TIP3      8043            0.0000000000
     49044      8243  TIP3      H1             11.6497561795        1.7457257304      -42.6882526279  TIP3      8043            0.0000000000
     49045      8243  TIP3      H2             11.5647335926        2.6308968014      -43.9052280855  TIP3      8043            0.0000000000
     49046      8244  TIP3      OH2            -0.1566632057        4.3313513483      -40.9843735974  TIP3      8044            0.0000000000
     49047      8244  TIP3      H1              0.5948974389        3.8753933239      -40.5648545633  TIP3      8044            0.0000000000
     49048      8244  TIP3      H2              0.0016958241        4.1031474697      -41.9162505209  TIP3      8044            0.0000000000
     49049      8245  TIP3      OH2             5.0435835425        5.9479463845      -41.6707083207  TIP3      8045            0.0000000000
     49050      8245  TIP3      H1              5.7149450216        5.3646559766      -41.2744112841  TIP3      8045            0.0000000000
     49051      8245  TIP3      H2              4.5342747715        5.2950244570      -42.1889235398  TIP3      8045            0.0000000000
     49052      8246  TIP3      OH2            16.0062478106        2.4824255831      -36.2562563243  TIP3      8046            0.0000000000
     49053      8246  TIP3      H1             15.4082983564        3.2546572776      -36.3641336983  TIP3      8046            0.0000000000
     49054      8246  TIP3      H2             16.0489814853        2.4056789291      -35.2965114159  TIP3      8046            0.0000000000
     49055      8247  TIP3      OH2             2.1451687386        0.8594713289      -37.6988827647  TIP3      8047            0.0000000000
     49056      8247  TIP3      H1              1.9243408039        1.4697542867      -38.4324186227  TIP3      8047            0.0000000000
     49057      8247  TIP3      H2              1.5177964538        1.1138459235      -36.9838829302  TIP3      8047            0.0000000000
     49058      8248  TIP3      OH2             9.4473936863       10.3550996199      -44.1441792278  TIP3      8048            0.0000000000
     49059      8248  TIP3      H1              9.1726243045       10.0726529533      -45.0294232068  TIP3      8048            0.0000000000
     49060      8248  TIP3      H2              9.1487958669       11.2939725122      -44.1034611439  TIP3      8048            0.0000000000
     49061      8249  TIP3      OH2             4.6816812968        8.5209478408      -37.4508919461  TIP3      8049            0.0000000000
     49062      8249  TIP3      H1              3.9778834949        9.1662413553      -37.2284328670  TIP3      8049            0.0000000000
     49063      8249  TIP3      H2              5.3881969871        9.1193207943      -37.7420584332  TIP3      8049            0.0000000000
     49064      8250  TIP3      OH2            12.8116599005        1.4068329250      -41.3658197990  TIP3      8050            0.0000000000
     49065      8250  TIP3      H1             12.5897907116        0.6378288100      -40.8330677926  TIP3      8050            0.0000000000
     49066      8250  TIP3      H2             13.4811108219        1.8429114072      -40.8119046591  TIP3      8050            0.0000000000
     49067      8251  TIP3      OH2             1.7217357596        2.7152177096      -39.6460453585  TIP3      8051            0.0000000000
     49068      8251  TIP3      H1              2.3484161684        3.4168178435      -39.3358310105  TIP3      8051            0.0000000000
     49069      8251  TIP3      H2              2.2676543761        2.3338900951      -40.3873525376  TIP3      8051            0.0000000000
     49070      8252  TIP3      OH2             3.1259224929       10.5237611993      -36.6355969156  TIP3      8052            0.0000000000
     49071      8252  TIP3      H1              3.0798956773       11.4394718576      -36.9652336413  TIP3      8052            0.0000000000
     49072      8252  TIP3      H2              2.2463523438       10.4458071004      -36.1866988908  TIP3      8052            0.0000000000
     49073      8253  TIP3      OH2            -0.8144261642       10.1239013844      -45.8002583993  TIP3      8053            0.0000000000
     49074      8253  TIP3      H1             -1.0378572074       10.4366567228      -46.6987367115  TIP3      8053            0.0000000000
     49075      8253  TIP3      H2             -0.7283366371       10.9660202051      -45.3115162110  TIP3      8053            0.0000000000
     49076      8254  TIP3      OH2            12.8182041409       11.8095256980      -39.0775916953  TIP3      8054            0.0000000000
     49077      8254  TIP3      H1             11.8503134997       11.9230058461      -38.9579815601  TIP3      8054            0.0000000000
     49078      8254  TIP3      H2             13.0879677222       12.7245937719      -39.2813773738  TIP3      8054            0.0000000000
     49079      8255  TIP3      OH2            13.1384913716        0.0985123167      -37.6951908027  TIP3      8055            0.0000000000
     49080      8255  TIP3      H1             12.4160840427        0.7309508428      -37.7860338555  TIP3      8055            0.0000000000
     49081      8255  TIP3      H2             13.8575737664        0.5148436753      -38.2158604660  TIP3      8055            0.0000000000
     49082      8256  TIP3      OH2             6.1050537225       -1.7861676632      -40.2228733717  TIP3      8056            0.0000000000
     49083      8256  TIP3      H1              5.9623000480       -2.7499512856      -40.2997012572  TIP3      8056            0.0000000000
     49084      8256  TIP3      H2              5.2272327166       -1.4821273908      -39.9158594366  TIP3      8056            0.0000000000
     49085      8257  TIP3      OH2            11.0866538409       13.5901789176      -42.4755125908  TIP3      8057            0.0000000000
     49086      8257  TIP3      H1             11.5048389362       12.8715871368      -42.9952034333  TIP3      8057            0.0000000000
     49087      8257  TIP3      H2             11.5125450388       14.3788570549      -42.8778585476  TIP3      8057            0.0000000000
     49088      8258  TIP3      OH2            12.2888839452       11.5120234176      -43.9520655493  TIP3      8058            0.0000000000
     49089      8258  TIP3      H1             11.9996657914       10.8268172658      -44.5806578726  TIP3      8058            0.0000000000
     49090      8258  TIP3      H2             12.3226353601       11.0104309648      -43.1196863885  TIP3      8058            0.0000000000
     49091      8259  TIP3      OH2            13.9050363344       10.1152721997      -35.4782419973  TIP3      8059            0.0000000000
     49092      8259  TIP3      H1             14.0636105849        9.4579053837      -36.1919441131  TIP3      8059            0.0000000000
     49093      8259  TIP3      H2             14.1217217290       10.9531964928      -35.9245930762  TIP3      8059            0.0000000000
     49094      8260  TIP3      OH2             8.3913090530        7.0359097199      -45.7154391434  TIP3      8060            0.0000000000
     49095      8260  TIP3      H1              7.6986439408        7.6167923934      -46.0909517093  TIP3      8060            0.0000000000
     49096      8260  TIP3      H2              9.1094398711        7.1073606458      -46.3738224654  TIP3      8060            0.0000000000
     49097      8261  TIP3      OH2             8.5049112040        5.5014150385      -48.6769385019  TIP3      8061            0.0000000000
     49098      8261  TIP3      H1              9.2231641613        5.5378581130      -48.0168163311  TIP3      8061            0.0000000000
     49099      8261  TIP3      H2              8.8386180367        4.8021360308      -49.2682923425  TIP3      8061            0.0000000000
     49100      8262  TIP3      OH2            15.7571507320        6.4094190381      -37.4599367494  TIP3      8062            0.0000000000
     49101      8262  TIP3      H1             15.1283846347        7.1541000972      -37.3968300173  TIP3      8062            0.0000000000
     49102      8262  TIP3      H2             16.2968460132        6.6753971067      -38.2246426134  TIP3      8062            0.0000000000
     49103      8263  TIP3      OH2            11.8462290307        7.2253496474      -44.7723130453  TIP3      8063            0.0000000000
     49104      8263  TIP3      H1             11.0985909688        7.4593186697      -44.1714799730  TIP3      8063            0.0000000000
     49105      8263  TIP3      H2             12.3256364383        6.5465517310      -44.2656524790  TIP3      8063            0.0000000000
     49106      8264  TIP3      OH2            11.7780262166        5.3773934029      -35.6653352928  TIP3      8064            0.0000000000
     49107      8264  TIP3      H1             11.7892914584        6.1987260128      -35.1462853719  TIP3      8064            0.0000000000
     49108      8264  TIP3      H2             11.1522088023        5.6711030338      -36.3600984778  TIP3      8064            0.0000000000
     49109      8265  TIP3      OH2             3.4634206702        7.8738985031      -42.8788323153  TIP3      8065            0.0000000000
     49110      8265  TIP3      H1              3.1448788285        7.4942520555      -43.7354056579  TIP3      8065            0.0000000000
     49111      8265  TIP3      H2              4.0776069744        7.1824821610      -42.5459578271  TIP3      8065            0.0000000000
     49112      8266  TIP3      OH2             4.7822692758       11.2542275619      -40.1954989230  TIP3      8066            0.0000000000
     49113      8266  TIP3      H1              4.7789755569       10.7334207581      -41.0072779034  TIP3      8066            0.0000000000
     49114      8266  TIP3      H2              5.5667776985       10.9001113483      -39.7378185510  TIP3      8066            0.0000000000
     49115      8267  TIP3      OH2             3.7943433182        6.6185591775      -39.2111086544  TIP3      8067            0.0000000000
     49116      8267  TIP3      H1              4.3406384794        6.7185357254      -40.0161973945  TIP3      8067            0.0000000000
     49117      8267  TIP3      H2              4.1859684606        7.2861713040      -38.6050702851  TIP3      8067            0.0000000000
     49118      8268  TIP3      OH2            10.2148251093       12.1946516152      -38.5037187736  TIP3      8068            0.0000000000
     49119      8268  TIP3      H1              9.9276085779       12.8283788475      -37.8402659297  TIP3      8068            0.0000000000
     49120      8268  TIP3      H2              9.9573522264       11.3403250451      -38.0846511307  TIP3      8068            0.0000000000
     49121      8269  TIP3      OH2             4.7471432790       11.0512896681      -34.5192252098  TIP3      8069            0.0000000000
     49122      8269  TIP3      H1              4.3314515845       11.7892579848      -34.0277543181  TIP3      8069            0.0000000000
     49123      8269  TIP3      H2              4.0749460495       10.8507311169      -35.2158027439  TIP3      8069            0.0000000000
     49124      8270  TIP3      OH2            10.6895499962        6.4247956644      -47.1150794141  TIP3      8070            0.0000000000
     49125      8270  TIP3      H1             11.2669812584        6.5955798193      -46.3331106818  TIP3      8070            0.0000000000
     49126      8270  TIP3      H2             11.1762868646        6.8961830094      -47.8352282503  TIP3      8070            0.0000000000
     49127      8271  TIP3      OH2             1.6896865249        7.2087447148      -35.3666447776  TIP3      8071            0.0000000000
     49128      8271  TIP3      H1              1.7442633736        7.8777086913      -34.6587760745  TIP3      8071            0.0000000000
     49129      8271  TIP3      H2              0.7467750632        7.2975552730      -35.5759498849  TIP3      8071            0.0000000000
     49130      8272  TIP3      OH2             8.4541011312       13.1472605110      -43.6731946428  TIP3      8072            0.0000000000
     49131      8272  TIP3      H1              8.8725831539       13.4416667461      -42.8543093899  TIP3      8072            0.0000000000
     49132      8272  TIP3      H2              7.8774964228       13.8881569662      -43.8872316359  TIP3      8072            0.0000000000
     49133      8273  TIP3      OH2             2.9951290670       13.0838877974      -33.7715898826  TIP3      8073            0.0000000000
     49134      8273  TIP3      H1              2.9323926535       12.9871144676      -34.7372497530  TIP3      8073            0.0000000000
     49135      8273  TIP3      H2              2.0656212272       12.9509123666      -33.5031912082  TIP3      8073            0.0000000000
     49136      8274  TIP3      OH2            14.4703942982       -1.8714820667      -47.2705320527  TIP3      8074            0.0000000000
     49137      8274  TIP3      H1             13.5267286288       -1.7720706133      -46.9920206627  TIP3      8074            0.0000000000
     49138      8274  TIP3      H2             14.6357924669       -0.9989732675      -47.6663873632  TIP3      8074            0.0000000000
     49139      8275  TIP3      OH2             2.4161086317        6.8977644688      -45.2298105337  TIP3      8075            0.0000000000
     49140      8275  TIP3      H1              2.1388434691        7.6673193443      -45.7704612662  TIP3      8075            0.0000000000
     49141      8275  TIP3      H2              1.7824341108        6.2225519179      -45.4797671535  TIP3      8075            0.0000000000
     49142      8276  TIP3      OH2            15.5330546449       12.5287683010      -48.7512949884  TIP3      8076            0.0000000000
     49143      8276  TIP3      H1             15.6994880659       13.4818288772      -48.6690613369  TIP3      8076            0.0000000000
     49144      8276  TIP3      H2             16.4234207063       12.1518908589      -48.8599204919  TIP3      8076            0.0000000000
     49145      8277  TIP3      OH2            -1.4804377822        9.3259962276      -36.3569573128  TIP3      8077            0.0000000000
     49146      8277  TIP3      H1             -1.9196161158        9.2448460650      -37.2225663961  TIP3      8077            0.0000000000
     49147      8277  TIP3      H2             -1.3920675218        8.3792456120      -36.1446969372  TIP3      8077            0.0000000000
     49148      8278  TIP3      OH2            -1.7163928136       12.0593398669      -39.5836545880  TIP3      8078            0.0000000000
     49149      8278  TIP3      H1             -0.7578883774       11.9457629773      -39.6059580215  TIP3      8078            0.0000000000
     49150      8278  TIP3      H2             -1.7979765678       12.8794860988      -39.0819526228  TIP3      8078            0.0000000000
     49151      8279  TIP3      OH2            16.5271188566       12.7659069921      -33.8942148927  TIP3      8079            0.0000000000
     49152      8279  TIP3      H1             16.4072702196       11.8053114977      -33.9248586187  TIP3      8079            0.0000000000
     49153      8279  TIP3      H2             15.6545894389       13.0088369542      -33.5083385650  TIP3      8079            0.0000000000
     49154      8280  TIP3      OH2             7.4804940229       12.3045200044      -35.0343815962  TIP3      8080            0.0000000000
     49155      8280  TIP3      H1              7.5391581718       13.1468656613      -34.5251151125  TIP3      8080            0.0000000000
     49156      8280  TIP3      H2              6.6081088937       11.9450752986      -34.7827767853  TIP3      8080            0.0000000000
     49157      8281  TIP3      OH2             7.9089438559       16.0524162178      -45.2445618218  TIP3      8081            0.0000000000
     49158      8281  TIP3      H1              7.8491628727       15.9768145867      -46.2096191725  TIP3      8081            0.0000000000
     49159      8281  TIP3      H2              7.9427859496       17.0082400651      -45.0752640632  TIP3      8081            0.0000000000
     49160      8282  TIP3      OH2             1.5561810402       14.9398916220      -43.3870081667  TIP3      8082            0.0000000000
     49161      8282  TIP3      H1              1.7111267255       14.5063621382      -42.5170104339  TIP3      8082            0.0000000000
     49162      8282  TIP3      H2              0.7189945650       14.5222438401      -43.6455768805  TIP3      8082            0.0000000000
     49163      8283  TIP3      OH2            10.8707157489       15.3342640054      -48.2114246163  TIP3      8083            0.0000000000
     49164      8283  TIP3      H1             11.3569626006       14.5926920109      -48.6594840064  TIP3      8083            0.0000000000
     49165      8283  TIP3      H2             11.0089709434       15.0241841394      -47.3019063942  TIP3      8083            0.0000000000
     49166      8284  TIP3      OH2            10.6554810926       15.2146760017      -45.4269653332  TIP3      8084            0.0000000000
     49167      8284  TIP3      H1              9.6914870700       15.2609631128      -45.2892734050  TIP3      8084            0.0000000000
     49168      8284  TIP3      H2             10.8981394201       14.4415429316      -44.8992104096  TIP3      8084            0.0000000000
     49169      8285  TIP3      OH2            13.6699118937        4.2306762669      -33.4266498033  TIP3      8085            0.0000000000
     49170      8285  TIP3      H1             13.2010896068        4.6863479114      -34.1434864232  TIP3      8085            0.0000000000
     49171      8285  TIP3      H2             13.6546072932        3.3120159697      -33.7328383508  TIP3      8085            0.0000000000
     49172      8286  TIP3      OH2             0.8110705999       10.6419137691      -35.4209941988  TIP3      8086            0.0000000000
     49173      8286  TIP3      H1              1.0328097403       10.2773279881      -34.5395320342  TIP3      8086            0.0000000000
     49174      8286  TIP3      H2             -0.0582679969       10.2440777495      -35.6346713055  TIP3      8086            0.0000000000
     49175      8287  TIP3      OH2             3.4778121934       -0.8850949149      -39.4742024966  TIP3      8087            0.0000000000
     49176      8287  TIP3      H1              2.5800396523       -1.0083571696      -39.8414916104  TIP3      8087            0.0000000000
     49177      8287  TIP3      H2              3.3692887668       -0.0542816346      -38.9868580457  TIP3      8087            0.0000000000
     49178      8288  TIP3      OH2             8.1347124677       -1.2196542924      -36.1129822820  TIP3      8088            0.0000000000
     49179      8288  TIP3      H1              8.5277306990       -1.6421461403      -35.3262045224  TIP3      8088            0.0000000000
     49180      8288  TIP3      H2              7.1629881394       -1.3338052552      -35.9651628690  TIP3      8088            0.0000000000
     49181      8289  TIP3      OH2            11.4209844996        2.6298109200      -35.2104090433  TIP3      8089            0.0000000000
     49182      8289  TIP3      H1             10.8565658945        2.4143758762      -34.4290209470  TIP3      8089            0.0000000000
     49183      8289  TIP3      H2             11.2373380471        3.5576841266      -35.4377244794  TIP3      8089            0.0000000000
     49184      8290  TIP3      OH2            12.4203107166        7.3321170858      -48.9169933061  TIP3      8090            0.0000000000
     49185      8290  TIP3      H1             12.2798325959        7.2092009410      -49.8714008235  TIP3      8090            0.0000000000
     49186      8290  TIP3      H2             13.1917484949        7.9167629397      -49.0561213452  TIP3      8090            0.0000000000
     49187      8291  TIP3      OH2             7.8084715621        1.3827787084      -48.7675309997  TIP3      8091            0.0000000000
     49188      8291  TIP3      H1              7.4579878896        1.3049607896      -47.8566875211  TIP3      8091            0.0000000000
     49189      8291  TIP3      H2              7.5025755893        0.5291045821      -49.0994817579  TIP3      8091            0.0000000000
     49190      8292  TIP3      OH2             3.5716057299        4.0820154324      -38.2282175305  TIP3      8092            0.0000000000
     49191      8292  TIP3      H1              2.8646521269        4.0979107037      -37.5605957156  TIP3      8092            0.0000000000
     49192      8292  TIP3      H2              3.5557257133        4.9966773853      -38.5894615276  TIP3      8092            0.0000000000
     49193      8293  TIP3      OH2             3.5533200434        4.1974931199      -43.3517982245  TIP3      8093            0.0000000000
     49194      8293  TIP3      H1              2.6144485280        3.9513268605      -43.4864561454  TIP3      8093            0.0000000000
     49195      8293  TIP3      H2              3.9308095723        3.9195138547      -44.2106198928  TIP3      8093            0.0000000000
     49196      8294  TIP3      OH2             9.0676826355        4.7104741809      -44.6043680012  TIP3      8094            0.0000000000
     49197      8294  TIP3      H1              8.6872197345        5.5446566783      -44.9595993259  TIP3      8094            0.0000000000
     49198      8294  TIP3      H2              9.7758245978        4.5380669741      -45.2503822259  TIP3      8094            0.0000000000
     49199      8295  TIP3      OH2             8.1266208685        4.9188973001      -33.1484447757  TIP3      8095            0.0000000000
     49200      8295  TIP3      H1              7.6021846313        4.1426734872      -32.8380721742  TIP3      8095            0.0000000000
     49201      8295  TIP3      H2              8.9647113785        4.7989104268      -32.6717565715  TIP3      8095            0.0000000000
     49202      8296  TIP3      OH2            10.1124577592        4.1943694257      -41.7392718186  TIP3      8096            0.0000000000
     49203      8296  TIP3      H1              9.8238202517        4.7632880666      -42.4736031600  TIP3      8096            0.0000000000
     49204      8296  TIP3      H2             10.2042424639        3.3492247741      -42.2214405658  TIP3      8096            0.0000000000
     49205      8297  TIP3      OH2             1.1664594644        4.3231550542      -36.5569600014  TIP3      8097            0.0000000000
     49206      8297  TIP3      H1              1.3126196700        4.7564720080      -35.6893505760  TIP3      8097            0.0000000000
     49207      8297  TIP3      H2              0.7856998912        3.4817709551      -36.2908288385  TIP3      8097            0.0000000000
     49208      8298  TIP3      OH2             4.6145242875        1.7213971043      -49.6787287151  TIP3      8098            0.0000000000
     49209      8298  TIP3      H1              4.1718656934        1.3205425054      -48.9012789779  TIP3      8098            0.0000000000
     49210      8298  TIP3      H2              3.8943499859        2.1182774233      -50.1739632814  TIP3      8098            0.0000000000
     49211      8299  TIP3      OH2            -2.1252527766        1.4367689346      -42.5215228559  TIP3      8099            0.0000000000
     49212      8299  TIP3      H1             -1.4046053588        1.3992309813      -41.8767540567  TIP3      8099            0.0000000000
     49213      8299  TIP3      H2             -1.7060472052        1.0831726560      -43.3344130077  TIP3      8099            0.0000000000
     49214      8300  TIP3      OH2            -0.8438848709        2.1696530857      -47.1783611266  TIP3      8100            0.0000000000
     49215      8300  TIP3      H1             -0.3466109298        2.7792692950      -47.7562890989  TIP3      8100            0.0000000000
     49216      8300  TIP3      H2             -1.5293428290        2.8056125468      -46.8871117565  TIP3      8100            0.0000000000
     49217      8301  TIP3      OH2             9.3022722050        5.7818381079      -37.1876337148  TIP3      8101            0.0000000000
     49218      8301  TIP3      H1              9.6852997014        5.0951510433      -37.7704209103  TIP3      8101            0.0000000000
     49219      8301  TIP3      H2              8.8364360115        5.2548570582      -36.5139822047  TIP3      8101            0.0000000000
     49220      8302  TIP3      OH2             6.1134211737        1.7662161613      -42.3514017721  TIP3      8102            0.0000000000
     49221      8302  TIP3      H1              5.1825994722        1.7603648188      -42.0609306781  TIP3      8102            0.0000000000
     49222      8302  TIP3      H2              6.5922595647        1.5883036190      -41.5275819952  TIP3      8102            0.0000000000
     49223      8303  TIP3      OH2             0.9020076243        3.2968078900      -43.4561636961  TIP3      8103            0.0000000000
     49224      8303  TIP3      H1              0.0434358692        3.4767051460      -43.8930637291  TIP3      8103            0.0000000000
     49225      8303  TIP3      H2              1.2071115643        2.4865522714      -43.8994861742  TIP3      8103            0.0000000000
     49226      8304  TIP3      OH2             4.5635302683        3.3634701303      -45.8367421909  TIP3      8104            0.0000000000
     49227      8304  TIP3      H1              5.5211401323        3.4590046752      -45.6722821059  TIP3      8104            0.0000000000
     49228      8304  TIP3      H2              4.3322371124        4.0260785524      -46.5171474785  TIP3      8104            0.0000000000
     49229      8305  TIP3      OH2            10.5139282590        0.9970117087      -39.1129550678  TIP3      8105            0.0000000000
     49230      8305  TIP3      H1              9.8267770250        1.0434264633      -38.4073987866  TIP3      8105            0.0000000000
     49231      8305  TIP3      H2             10.0036290241        0.7389498693      -39.8942687471  TIP3      8105            0.0000000000
     49232      8306  TIP3      OH2             3.2870436618        4.5545687486      -48.2419456676  TIP3      8106            0.0000000000
     49233      8306  TIP3      H1              2.6937293610        4.1964957074      -48.9062294796  TIP3      8106            0.0000000000
     49234      8306  TIP3      H2              4.0955433156        4.7537497919      -48.7393544275  TIP3      8106            0.0000000000
     49235      8307  TIP3      OH2            13.7120533873       16.6365081205      -32.7832852354  TIP3      8107            0.0000000000
     49236      8307  TIP3      H1             13.9790485769       17.0202080216      -33.6377354925  TIP3      8107            0.0000000000
     49237      8307  TIP3      H2             14.4351284880       16.9565970728      -32.2230362114  TIP3      8107            0.0000000000
     49238      8308  TIP3      OH2             1.3806763901        9.1082399460      -33.2041742871  TIP3      8108            0.0000000000
     49239      8308  TIP3      H1              2.1120674046        9.3517915387      -32.6103548217  TIP3      8108            0.0000000000
     49240      8308  TIP3      H2              0.6153140883        9.1881328359      -32.6002662697  TIP3      8108            0.0000000000
     49241      8309  TIP3      OH2             7.3799509707        4.5136629506      -40.4583677020  TIP3      8109            0.0000000000
     49242      8309  TIP3      H1              7.9885637457        3.9862302548      -40.9891676100  TIP3      8109            0.0000000000
     49243      8309  TIP3      H2              7.2429814831        3.9661218642      -39.6733833439  TIP3      8109            0.0000000000
     49244      8310  TIP3      OH2             2.4008114582        0.6593472415      -44.0180216641  TIP3      8110            0.0000000000
     49245      8310  TIP3      H1              2.0886844255       -0.2643697032      -44.0348428085  TIP3      8110            0.0000000000
     49246      8310  TIP3      H2              3.1938168121        0.5925513173      -44.5619532566  TIP3      8110            0.0000000000
     49247      8311  TIP3      OH2             6.0272470563        2.8417646721      -38.0426120663  TIP3      8111            0.0000000000
     49248      8311  TIP3      H1              5.2031533070        3.3629357589      -37.9542553995  TIP3      8111            0.0000000000
     49249      8311  TIP3      H2              6.5837103327        3.1965898262      -37.3215881461  TIP3      8111            0.0000000000
     49250      8312  TIP3      OH2             6.6272326442        9.0596555133      -46.3321367386  TIP3      8112            0.0000000000
     49251      8312  TIP3      H1              5.8213244157        8.6074151325      -46.6613701205  TIP3      8112            0.0000000000
     49252      8312  TIP3      H2              6.4015511614        9.1979111446      -45.3893189960  TIP3      8112            0.0000000000
     49253      8313  TIP3      OH2            13.8053684400        8.2730960266      -37.5408834761  TIP3      8113            0.0000000000
     49254      8313  TIP3      H1             14.3699491766        8.7528097396      -38.1739903789  TIP3      8113            0.0000000000
     49255      8313  TIP3      H2             12.9456129312        8.3154673573      -38.0054079821  TIP3      8113            0.0000000000
     49256      8314  TIP3      OH2            10.4022897513        1.9059600173      -47.9986173158  TIP3      8114            0.0000000000
     49257      8314  TIP3      H1              9.4881142417        2.0606401893      -48.2766406216  TIP3      8114            0.0000000000
     49258      8314  TIP3      H2             10.7562131052        2.8020317373      -47.8349142744  TIP3      8114            0.0000000000
     49259      8315  TIP3      OH2             8.1080037414        9.3342778549      -35.1044839637  TIP3      8115            0.0000000000
     49260      8315  TIP3      H1              7.7597156911        8.9078729005      -34.3137639855  TIP3      8115            0.0000000000
     49261      8315  TIP3      H2              7.8526287100       10.2577333243      -34.9926131245  TIP3      8115            0.0000000000
     49262      8316  TIP3      OH2            11.1810998835        3.8450662617      -46.4865609012  TIP3      8116            0.0000000000
     49263      8316  TIP3      H1             12.0713530782        3.6566290182      -46.1167813369  TIP3      8116            0.0000000000
     49264      8316  TIP3      H2             11.2965984962        4.6339352741      -47.0389715028  TIP3      8116            0.0000000000
     49265      8317  TIP3      OH2             1.7283828317        8.4654060510      -40.5414986275  TIP3      8117            0.0000000000
     49266      8317  TIP3      H1              2.4091375396        8.3802618598      -41.2370552676  TIP3      8117            0.0000000000
     49267      8317  TIP3      H2              1.7876487711        7.6065730114      -40.0875403961  TIP3      8117            0.0000000000
     49268      8318  TIP3      OH2             8.7566881163       10.5409455535      -47.2960650326  TIP3      8118            0.0000000000
     49269      8318  TIP3      H1              8.3792944380       11.3815939015      -46.9670944554  TIP3      8118            0.0000000000
     49270      8318  TIP3      H2              7.9989681831        9.9391957022      -47.1294466549  TIP3      8118            0.0000000000
     49271      8319  TIP3      OH2            -1.2871954692        6.8727826757      -35.2812932196  TIP3      8119            0.0000000000
     49272      8319  TIP3      H1             -1.1119424387        6.4222775766      -34.4316208583  TIP3      8119            0.0000000000
     49273      8319  TIP3      H2             -1.9096160725        6.2655530078      -35.7184601262  TIP3      8119            0.0000000000
     49274      8320  TIP3      OH2             5.7277719714        6.4249186744      -33.1097510262  TIP3      8120            0.0000000000
     49275      8320  TIP3      H1              5.4087708139        6.1135193284      -33.9687237732  TIP3      8120            0.0000000000
     49276      8320  TIP3      H2              6.6502397487        6.0995861663      -33.1098065836  TIP3      8120            0.0000000000
     49277      8321  TIP3      OH2            10.4169069431       11.7611066971      -35.1501841831  TIP3      8121            0.0000000000
     49278      8321  TIP3      H1              9.4917446477       11.9388242347      -35.3847692457  TIP3      8121            0.0000000000
     49279      8321  TIP3      H2             10.3828440590       12.0549643217      -34.2198621692  TIP3      8121            0.0000000000
     49280      8322  TIP3      OH2            16.1223862082        3.9390711172      -46.7366509176  TIP3      8122            0.0000000000
     49281      8322  TIP3      H1             15.5321220662        3.6721891701      -47.4758526593  TIP3      8122            0.0000000000
     49282      8322  TIP3      H2             16.1756538155        4.8844843012      -46.9857554003  TIP3      8122            0.0000000000
     49283      8323  TIP3      OH2            16.0804396051        9.8078372042      -33.9613766967  TIP3      8123            0.0000000000
     49284      8323  TIP3      H1             15.1902907867       10.0144011850      -34.3337732655  TIP3      8123            0.0000000000
     49285      8323  TIP3      H2             16.6300186168        9.7346770439      -34.7722270038  TIP3      8123            0.0000000000
     49286      8324  TIP3      OH2            14.3891290718       12.7450584679      -46.3613879140  TIP3      8124            0.0000000000
     49287      8324  TIP3      H1             13.9909167998       11.9222201129      -46.0633523360  TIP3      8124            0.0000000000
     49288      8324  TIP3      H2             14.6636592428       12.5452663258      -47.2763392956  TIP3      8124            0.0000000000
     49289      8325  TIP3      OH2            11.5754139272        7.5846651598      -39.2597806703  TIP3      8125            0.0000000000
     49290      8325  TIP3      H1             10.6357300644        7.3744651458      -39.3720184820  TIP3      8125            0.0000000000
     49291      8325  TIP3      H2             12.0106724177        6.8282347100      -39.6966744472  TIP3      8125            0.0000000000
     49292      8326  TIP3      OH2             4.0990407722       11.9114786358      -43.1561141584  TIP3      8126            0.0000000000
     49293      8326  TIP3      H1              4.5968038770       12.7221172058      -43.3622440762  TIP3      8126            0.0000000000
     49294      8326  TIP3      H2              3.2227695270       12.1478099179      -43.4853898944  TIP3      8126            0.0000000000
     49295      8327  TIP3      OH2            -0.0742658401        6.7108055550      -48.5618584416  TIP3      8127            0.0000000000
     49296      8327  TIP3      H1              0.4644699974        7.4166351167      -48.1654849694  TIP3      8127            0.0000000000
     49297      8327  TIP3      H2             -0.9792929001        7.0309440782      -48.3432691329  TIP3      8127            0.0000000000
     49298      8328  TIP3      OH2             5.5170295863        9.5776132073      -43.6384040960  TIP3      8128            0.0000000000
     49299      8328  TIP3      H1              5.1980949067       10.4988266149      -43.5579735888  TIP3      8128            0.0000000000
     49300      8328  TIP3      H2              4.7969601597        9.0870537997      -43.1947811981  TIP3      8128            0.0000000000
     49301      8329  TIP3      OH2             5.9656085263       13.7671865856      -37.2273833683  TIP3      8129            0.0000000000
     49302      8329  TIP3      H1              6.4259548592       14.5699325615      -37.5168630377  TIP3      8129            0.0000000000
     49303      8329  TIP3      H2              6.5817447395       13.4233345970      -36.5568671163  TIP3      8129            0.0000000000
     49304      8330  TIP3      OH2             4.1973184393       14.5594535469      -44.0581647960  TIP3      8130            0.0000000000
     49305      8330  TIP3      H1              3.2306840027       14.7020948476      -43.9611822106  TIP3      8130            0.0000000000
     49306      8330  TIP3      H2              4.5599692555       15.4130174704      -43.7552148371  TIP3      8130            0.0000000000
     49307      8331  TIP3      OH2             9.4813112365        9.7579768430      -37.6159000206  TIP3      8131            0.0000000000
     49308      8331  TIP3      H1              9.1646002935        9.5699159380      -36.7076430522  TIP3      8131            0.0000000000
     49309      8331  TIP3      H2             10.1271757495        9.0523904281      -37.7812649383  TIP3      8131            0.0000000000
     49310      8332  TIP3      OH2            11.7398654772       10.7986693832      -48.4259733526  TIP3      8132            0.0000000000
     49311      8332  TIP3      H1             12.0764982503       10.3041253037      -47.6610992386  TIP3      8132            0.0000000000
     49312      8332  TIP3      H2             10.7979125716       10.6096789544      -48.3485556042  TIP3      8132            0.0000000000
     49313      8333  TIP3      OH2            12.3093871474       14.3447692778      -35.1271422609  TIP3      8133            0.0000000000
     49314      8333  TIP3      H1             11.6151319633       13.8520236859      -35.6042657372  TIP3      8133            0.0000000000
     49315      8333  TIP3      H2             12.4898212225       15.0456893061      -35.7884751842  TIP3      8133            0.0000000000
     49316      8334  TIP3      OH2            16.2958394509       15.2412239544      -48.3064026906  TIP3      8134            0.0000000000
     49317      8334  TIP3      H1             17.0041653797       15.8912434041      -48.4544929615  TIP3      8134            0.0000000000
     49318      8334  TIP3      H2             15.5749522816       15.8252420193      -47.9702013799  TIP3      8134            0.0000000000
     49319      8335  TIP3      OH2             0.3308560243        1.5683257100      -35.8036467996  TIP3      8135            0.0000000000
     49320      8335  TIP3      H1             -0.5416629612        1.9643757834      -35.6642799191  TIP3      8135            0.0000000000
     49321      8335  TIP3      H2              0.2827755433        0.7667282483      -35.2470033192  TIP3      8135            0.0000000000
     49322      8336  TIP3      OH2            12.6123570662        9.4817204604      -46.2737164580  TIP3      8136            0.0000000000
     49323      8336  TIP3      H1             12.3738180916        8.6677426799      -45.7908407767  TIP3      8136            0.0000000000
     49324      8336  TIP3      H2             13.5643642947        9.5187034659      -46.1049875460  TIP3      8136            0.0000000000
     49325      8337  TIP3      OH2            -0.0234653282       13.3809542485      -37.3079257373  TIP3      8137            0.0000000000
     49326      8337  TIP3      H1              0.2847923671       12.4612914115      -37.3004767182  TIP3      8137            0.0000000000
     49327      8337  TIP3      H2              0.2419195888       13.6740297938      -36.4283044298  TIP3      8137            0.0000000000
     49328      8338  TIP3      OH2             4.7360435142       11.4562533012      -47.5826349167  TIP3      8138            0.0000000000
     49329      8338  TIP3      H1              4.9935713034       10.9173407414      -46.8280231436  TIP3      8138            0.0000000000
     49330      8338  TIP3      H2              4.7909331425       12.3758781780      -47.2501878842  TIP3      8138            0.0000000000
     49331      8339  TIP3      OH2             1.2414544273        8.6687395380      -47.1158209793  TIP3      8139            0.0000000000
     49332      8339  TIP3      H1              0.5534124852        9.0805802223      -46.5590671094  TIP3      8139            0.0000000000
     49333      8339  TIP3      H2              1.7765385252        9.4483668823      -47.3564095351  TIP3      8139            0.0000000000
     49334      8340  TIP3      OH2             9.0983263041        1.3725424984      -36.7685887968  TIP3      8140            0.0000000000
     49335      8340  TIP3      H1              9.8148419234        1.4329598414      -36.1276338617  TIP3      8140            0.0000000000
     49336      8340  TIP3      H2              8.7159639936        0.4959279898      -36.5646172932  TIP3      8140            0.0000000000
     49337      8341  TIP3      OH2             9.8195669665        0.9374908264      -45.6388842183  TIP3      8141            0.0000000000
     49338      8341  TIP3      H1             10.0668938895        1.3915579080      -46.4740912263  TIP3      8141            0.0000000000
     49339      8341  TIP3      H2             10.4254649047        1.3821767359      -45.0388647540  TIP3      8141            0.0000000000
     49340      8342  TIP3      OH2             7.5405102003       13.1026078981      -46.8959758425  TIP3      8142            0.0000000000
     49341      8342  TIP3      H1              6.7164008726       13.6083825565      -46.7912286365  TIP3      8142            0.0000000000
     49342      8342  TIP3      H2              8.0573869862       13.6564380734      -47.4894686610  TIP3      8142            0.0000000000
     49343      8343  TIP3      OH2             7.0815650112        2.6856384859      -44.8625780698  TIP3      8143            0.0000000000
     49344      8343  TIP3      H1              7.8558374748        3.2819213801      -44.8308115239  TIP3      8143            0.0000000000
     49345      8343  TIP3      H2              6.8143801254        2.5734237741      -43.9311985576  TIP3      8143            0.0000000000
     49346      8344  TIP3      OH2             7.6271908504        3.7201382333      -35.6720328088  TIP3      8144            0.0000000000
     49347      8344  TIP3      H1              7.7013159087        4.2755040484      -34.8739888944  TIP3      8144            0.0000000000
     49348      8344  TIP3      H2              8.2895505638        3.0241866814      -35.5783847325  TIP3      8144            0.0000000000
     49349      8345  TIP3      OH2             7.9267451553       -0.2558653025      -43.9791715843  TIP3      8145            0.0000000000
     49350      8345  TIP3      H1              7.6011214965        0.4060063926      -43.3442542599  TIP3      8145            0.0000000000
     49351      8345  TIP3      H2              8.6176481167        0.2919781067      -44.4282123356  TIP3      8145            0.0000000000
     49352      8346  TIP3      OH2             4.9003477515       14.1559648607      -46.8130006936  TIP3      8146            0.0000000000
     49353      8346  TIP3      H1              5.0813260946       14.9706832285      -47.3359363834  TIP3      8146            0.0000000000
     49354      8346  TIP3      H2              4.6453561166       14.5102699661      -45.9395774930  TIP3      8146            0.0000000000
     49355      8347  TIP3      OH2             3.5856255118        0.8894660691      -47.2312822870  TIP3      8147            0.0000000000
     49356      8347  TIP3      H1              3.5398801883        1.7765686523      -46.8353643516  TIP3      8147            0.0000000000
     49357      8347  TIP3      H2              4.4871035854        0.6163148749      -46.9795482286  TIP3      8147            0.0000000000
     49358      8348  TIP3      OH2            13.8024772924        1.5912478615      -34.8279381000  TIP3      8148            0.0000000000
     49359      8348  TIP3      H1             12.8735670120        1.9055617010      -34.9588578669  TIP3      8148            0.0000000000
     49360      8348  TIP3      H2             14.1043074722        1.5741604258      -35.7511809174  TIP3      8148            0.0000000000
     49361      8349  TIP3      OH2            12.4217614289        5.3777043085      -40.8182830568  TIP3      8149            0.0000000000
     49362      8349  TIP3      H1             11.5975710023        4.9303151854      -41.0977321721  TIP3      8149            0.0000000000
     49363      8349  TIP3      H2             12.9005248657        4.6889170777      -40.3060949727  TIP3      8149            0.0000000000
     49364      8350  TIP3      OH2             1.8603463477       11.2508295687      -48.1144431790  TIP3      8150            0.0000000000
     49365      8350  TIP3      H1              2.4931375062       11.9470489116      -47.9100924393  TIP3      8150            0.0000000000
     49366      8350  TIP3      H2              2.2782414303       10.8816238687      -48.9228343988  TIP3      8150            0.0000000000
     49367      8351  TIP3      OH2             0.1848346149        3.9759971442      -48.9555009927  TIP3      8151            0.0000000000
     49368      8351  TIP3      H1              0.1737313161        4.9460375541      -48.8647510351  TIP3      8151            0.0000000000
     49369      8351  TIP3      H2             -0.6507935453        3.7759814638      -49.4159535664  TIP3      8151            0.0000000000
     49370      8352  TIP3      OH2            13.4826372387       14.6362352062      -39.1503042204  TIP3      8152            0.0000000000
     49371      8352  TIP3      H1             13.3942533061       15.3172849759      -39.8469769487  TIP3      8152            0.0000000000
     49372      8352  TIP3      H2             14.4460126536       14.6875855093      -38.9771324804  TIP3      8152            0.0000000000
     49373      8353  TIP3      OH2             0.9118566158       -1.2066485987      -40.3336505592  TIP3      8153            0.0000000000
     49374      8353  TIP3      H1              0.7998374764       -1.2452670238      -41.3116749927  TIP3      8153            0.0000000000
     49375      8353  TIP3      H2              0.5822537215       -2.1039679610      -40.0943633228  TIP3      8153            0.0000000000
     49376      8354  TIP3      OH2            -0.0698748679       12.6773376361      -44.1995398587  TIP3      8154            0.0000000000
     49377      8354  TIP3      H1             -0.9277325269       13.1232966053      -44.2404147063  TIP3      8154            0.0000000000
     49378      8354  TIP3      H2              0.4145041781       13.1399315497      -44.8911539017  TIP3      8154            0.0000000000
     49379      8355  TIP3      OH2            -0.8715770591       15.3307737379      -32.9191061561  TIP3      8155            0.0000000000
     49380      8355  TIP3      H1             -0.2560387610       15.1334950228      -32.1840032671  TIP3      8155            0.0000000000
     49381      8355  TIP3      H2             -1.2651254778       14.4577851265      -33.0960682145  TIP3      8155            0.0000000000
     49382      8356  TIP3      OH2             3.8144244043       14.2496107775      -31.3075866719  TIP3      8156            0.0000000000
     49383      8356  TIP3      H1              4.5713790486       13.7490574690      -30.9737628338  TIP3      8156            0.0000000000
     49384      8356  TIP3      H2              3.7898669453       13.9685097849      -32.2449004003  TIP3      8156            0.0000000000
     49385      8357  TIP3      OH2             7.8730881314       13.7017732494      -49.9818088771  TIP3      8157            0.0000000000
     49386      8357  TIP3      H1              7.2491511423       13.0524369787      -49.6386586856  TIP3      8157            0.0000000000
     49387      8357  TIP3      H2              8.6653713916       13.1681749952      -50.1156744699  TIP3      8157            0.0000000000
     49388      8358  TIP3      OH2            10.3170244800       12.6320867734      -32.5570510443  TIP3      8158            0.0000000000
     49389      8358  TIP3      H1             10.0017937478       11.7449136050      -32.2819243518  TIP3      8158            0.0000000000
     49390      8358  TIP3      H2             11.0875949694       12.7507630552      -31.9669089163  TIP3      8158            0.0000000000
     49391      8359  TIP3      OH2            12.1091280297       13.3943257438      -49.3071518032  TIP3      8159            0.0000000000
     49392      8359  TIP3      H1             12.6682488697       12.6705025072      -48.9783344691  TIP3      8159            0.0000000000
     49393      8359  TIP3      H2             12.7513635763       13.8430897868      -49.9302030030  TIP3      8159            0.0000000000
     49394      8360  TIP3      OH2            -1.0006720559        9.0822150025      -31.8894940777  TIP3      8160            0.0000000000
     49395      8360  TIP3      H1             -0.7694682479        8.1965121655      -32.2304433136  TIP3      8160            0.0000000000
     49396      8360  TIP3      H2             -1.6748702900        9.3631158975      -32.5286518866  TIP3      8160            0.0000000000
     49397      8361  TIP3      OH2             3.4732569733        9.3893684219      -49.8071643102  TIP3      8161            0.0000000000
     49398      8361  TIP3      H1              3.5543617299        8.6241663792      -49.2273909694  TIP3      8161            0.0000000000
     49399      8361  TIP3      H2              4.1533769757        9.2880384940      -50.4812997705  TIP3      8161            0.0000000000
     49400      8362  TIP3      OH2             5.7603065410        9.0883748018      -32.5337215445  TIP3      8162            0.0000000000
     49401      8362  TIP3      H1              5.4260376014        9.4031660738      -33.3971983469  TIP3      8162            0.0000000000
     49402      8362  TIP3      H2              5.8337097615        8.1120383983      -32.6428006277  TIP3      8162            0.0000000000
     49403      8363  TIP3      OH2            11.4571381462        8.9486891411      -35.1413766334  TIP3      8163            0.0000000000
     49404      8363  TIP3      H1             12.2460272374        9.5304321970      -35.2023049805  TIP3      8163            0.0000000000
     49405      8363  TIP3      H2             10.7583283973        9.6175970018      -35.1059600668  TIP3      8163            0.0000000000
     49406      8364  TIP3      OH2            -0.0336198833        6.3234598760      -32.5442852359  TIP3      8164            0.0000000000
     49407      8364  TIP3      H1              0.3868587801        5.4613179151      -32.6291610626  TIP3      8164            0.0000000000
     49408      8364  TIP3      H2             -0.2587955933        6.3290152126      -31.6015408592  TIP3      8164            0.0000000000
     49409      8365  TIP3      OH2             4.5753075668        7.4422162081      -47.4928516851  TIP3      8165            0.0000000000
     49410      8365  TIP3      H1              4.0998532199        6.9423512582      -46.8076340650  TIP3      8165            0.0000000000
     49411      8365  TIP3      H2              4.9222641862        6.7259866480      -48.0690580719  TIP3      8165            0.0000000000
     49412      8366  TIP3      OH2             3.8591010233        5.2663505930      -35.1911101333  TIP3      8166            0.0000000000
     49413      8366  TIP3      H1              3.2699286529        5.9918309013      -34.9284989567  TIP3      8166            0.0000000000
     49414      8366  TIP3      H2              4.2647268308        5.6398196955      -35.9921826970  TIP3      8166            0.0000000000
     49415      8367  TIP3      OH2             5.7743418802        5.6772568579      -49.1622529848  TIP3      8167            0.0000000000
     49416      8367  TIP3      H1              5.5405075197        5.5484582449      -50.0980759489  TIP3      8167            0.0000000000
     49417      8367  TIP3      H2              6.7487297088        5.7523623395      -49.1397494301  TIP3      8167            0.0000000000
     49418      8368  TIP3      OH2             8.9392178550        7.8413787008      -31.8460185899  TIP3      8168            0.0000000000
     49419      8368  TIP3      H1              9.8954798278        7.8248166399      -31.9732354039  TIP3      8168            0.0000000000
     49420      8368  TIP3      H2              8.7669123175        7.0736250483      -31.2776619500  TIP3      8168            0.0000000000
     49421      8369  TIP3      OH2            14.7873167494        7.7361712025       50.2267567683  TIP3      8169            0.0000000000
     49422      8369  TIP3      H1             14.8452485232        7.5016704365       49.3010888483  TIP3      8169            0.0000000000
     49423      8369  TIP3      H2             14.9847603218        8.7027044169       50.1252352198  TIP3      8169            0.0000000000
     49424      8370  TIP3      OH2             4.2770630155        2.6485405322      -34.1290850141  TIP3      8170            0.0000000000
     49425      8370  TIP3      H1              4.3888141839        1.9392309762      -34.7891242004  TIP3      8170            0.0000000000
     49426      8370  TIP3      H2              4.2272432878        3.4597319530      -34.6770110242  TIP3      8170            0.0000000000
     49427      8371  TIP3      OH2             4.6818415684        1.0347113719      -36.5692621885  TIP3      8171            0.0000000000
     49428      8371  TIP3      H1              5.1863562259        1.4970284214      -37.2804148146  TIP3      8171            0.0000000000
     49429      8371  TIP3      H2              3.7943922159        0.9449284585      -36.9752447034  TIP3      8171            0.0000000000
     49430      8372  TIP3      OH2             6.2106817521        6.5228907453      -36.3331620898  TIP3      8172            0.0000000000
     49431      8372  TIP3      H1              6.9665662568        6.3565363102      -36.9022194867  TIP3      8172            0.0000000000
     49432      8372  TIP3      H2              5.8468066365        7.3567709002      -36.6690670741  TIP3      8172            0.0000000000
     49433      8373  TIP3      OH2            10.6113015031        4.2726506593      -31.3622073731  TIP3      8173            0.0000000000
     49434      8373  TIP3      H1             10.8563198812        3.3437340854      -31.4697756342  TIP3      8173            0.0000000000
     49435      8373  TIP3      H2             11.4730680903        4.7202978299      -31.3347710559  TIP3      8173            0.0000000000
     49436      8374  TIP3      OH2            11.9441024020        7.0687788778      -33.1980878114  TIP3      8174            0.0000000000
     49437      8374  TIP3      H1             11.6974431624        7.7881590959      -33.8197527489  TIP3      8174            0.0000000000
     49438      8374  TIP3      H2             12.9102953485        7.0359969859      -33.3831885739  TIP3      8174            0.0000000000
     49439      8375  TIP3      OH2             2.7324403940        3.9000960878      -32.2092739135  TIP3      8175            0.0000000000
     49440      8375  TIP3      H1              1.9624887342        3.3225336347      -32.3736188948  TIP3      8175            0.0000000000
     49441      8375  TIP3      H2              3.3866331852        3.5292370308      -32.8303226110  TIP3      8175            0.0000000000
     49442      8376  TIP3      OH2             5.4563920425       -1.5277155278      -36.1851182111  TIP3      8176            0.0000000000
     49443      8376  TIP3      H1              5.2829690508       -0.5649131627      -36.2754854635  TIP3      8176            0.0000000000
     49444      8376  TIP3      H2              4.7108534922       -1.8965844121      -36.6888388900  TIP3      8176            0.0000000000
     49445      8377  TIP3      OH2             6.7324025942        2.7964040182      -32.5577888592  TIP3      8177            0.0000000000
     49446      8377  TIP3      H1              6.4179157992        2.5641238077      -31.6623232844  TIP3      8177            0.0000000000
     49447      8377  TIP3      H2              5.9506486960        2.5934225130      -33.0993169323  TIP3      8177            0.0000000000
     49448      8378  TIP3      OH2             9.4545642174        1.9412370440      -33.4652976984  TIP3      8178            0.0000000000
     49449      8378  TIP3      H1              8.4894718577        1.9946912162      -33.3572664823  TIP3      8178            0.0000000000
     49450      8378  TIP3      H2              9.7178157586        1.3001796378      -32.7768020748  TIP3      8178            0.0000000000
     49451      8379  TIP3      OH2            11.0358916451        0.5605936940      -31.5683735936  TIP3      8179            0.0000000000
     49452      8379  TIP3      H1             10.9886658553       -0.4181139727      -31.5366608703  TIP3      8179            0.0000000000
     49453      8379  TIP3      H2             10.7877334182        0.8525108718      -30.6685495946  TIP3      8179            0.0000000000
     49454      8380  TIP3      OH2             0.8020406996        1.8388673102      -32.4517426026  TIP3      8180            0.0000000000
     49455      8380  TIP3      H1              1.0584187094        1.1039706436      -33.0326178446  TIP3      8180            0.0000000000
     49456      8380  TIP3      H2              0.7227549171        1.3901137020      -31.5833046463  TIP3      8180            0.0000000000
     49457      8381  TIP3      OH2             5.6771832302       -2.1375650607      -33.4848835795  TIP3      8181            0.0000000000
     49458      8381  TIP3      H1              6.3561222148       -2.8415169510      -33.5007672425  TIP3      8181            0.0000000000
     49459      8381  TIP3      H2              5.5613470159       -1.9977259551      -34.4453808760  TIP3      8181            0.0000000000
     49460      8382  TIP3      OH2             6.0389261316       -0.5261436862      -31.3665962649  TIP3      8182            0.0000000000
     49461      8382  TIP3      H1              5.8652464281       -1.0317530268      -32.1992704566  TIP3      8182            0.0000000000
     49462      8382  TIP3      H2              5.4400295875        0.2389280448      -31.4677529958  TIP3      8182            0.0000000000
     49463      8383  TIP3      OH2             5.5153728066       16.3890693138      -48.2041503572  TIP3      8183            0.0000000000
     49464      8383  TIP3      H1              6.4862918481       16.4887694990      -48.1291107929  TIP3      8183            0.0000000000
     49465      8383  TIP3      H2              5.3113755868       17.0104208479      -48.9127392325  TIP3      8183            0.0000000000
     49466      8384  TIP3      OH2            -0.8473091124       10.9564785861      -48.6382022856  TIP3      8184            0.0000000000
     49467      8384  TIP3      H1              0.1187223169       11.0568655503      -48.4965532415  TIP3      8184            0.0000000000
     49468      8384  TIP3      H2             -0.8619514101       10.3542736135      -49.3966018299  TIP3      8184            0.0000000000
     49469      8385  TIP3      OH2            -2.1592750980       16.3441272739      -43.7592304584  TIP3      8185            0.0000000000
     49470      8385  TIP3      H1             -2.8786446559       15.8595155483      -44.2214365807  TIP3      8185            0.0000000000
     49471      8385  TIP3      H2             -1.8866098691       15.6946979454      -43.0855752725  TIP3      8185            0.0000000000
     49472      8386  TIP3      OH2            -1.3343583801       14.4852758680      -41.8793354310  TIP3      8186            0.0000000000
     49473      8386  TIP3      H1             -1.6892535855       13.6065606948      -41.6818363764  TIP3      8186            0.0000000000
     49474      8386  TIP3      H2             -1.1097492258       14.8142536550      -40.9941669539  TIP3      8186            0.0000000000
     49475      8387  TIP3      OH2            16.2022419736       15.2788301191      -38.9548791702  TIP3      8187            0.0000000000
     49476      8387  TIP3      H1             16.2330681766       15.4391505539      -37.9956178323  TIP3      8187            0.0000000000
     49477      8387  TIP3      H2             16.9059838209       15.8620846520      -39.2574208030  TIP3      8187            0.0000000000
     49478      8388  TIP3      OH2            15.7729725383       14.8725017321      -36.0084316305  TIP3      8188            0.0000000000
     49479      8388  TIP3      H1             15.3044319168       14.1034812241      -36.3906418336  TIP3      8188            0.0000000000
     49480      8388  TIP3      H2             16.2608551904       14.4273199485      -35.2954452984  TIP3      8188            0.0000000000
     49481      8389  TIP3      OH2            14.2196533816       10.5950902205      -31.3340534666  TIP3      8189            0.0000000000
     49482      8389  TIP3      H1             13.3139571645       10.5680835227      -30.9723019804  TIP3      8189            0.0000000000
     49483      8389  TIP3      H2             14.5913776809       11.4001424791      -30.9256326208  TIP3      8189            0.0000000000
     49484      8390  TIP3      OH2            15.5322751184        8.9331892447      -45.8908205655  TIP3      8190            0.0000000000
     49485      8390  TIP3      H1             16.4037137396        9.3183529303      -45.7114959242  TIP3      8190            0.0000000000
     49486      8390  TIP3      H2             15.5234938620        8.2079240743      -45.2288869508  TIP3      8190            0.0000000000
     49487      8391  TIP3      OH2            15.8859461552        7.0161495862      -44.0102052036  TIP3      8191            0.0000000000
     49488      8391  TIP3      H1             15.1427703928        6.4945023783      -43.6351305432  TIP3      8191            0.0000000000
     49489      8391  TIP3      H2             16.4931730865        7.1267254320      -43.2441722889  TIP3      8191            0.0000000000
     49490      8392  TIP3      OH2            15.6595569643        9.6953080436      -39.0306883386  TIP3      8192            0.0000000000
     49491      8392  TIP3      H1             16.4794049448        9.3129340463      -39.4031303999  TIP3      8192            0.0000000000
     49492      8392  TIP3      H2             15.8002089032       10.6474142438      -39.2054570442  TIP3      8192            0.0000000000
     49493      8393  TIP3      OH2            14.2105350181       12.6048365585      -36.7675007245  TIP3      8193            0.0000000000
     49494      8393  TIP3      H1             13.5218663205       12.9427845466      -36.1772863889  TIP3      8193            0.0000000000
     49495      8393  TIP3      H2             13.6626237632       12.1985794037      -37.4730944136  TIP3      8193            0.0000000000
     49496      8394  TIP3      OH2            16.2295345950        6.8642006467      -47.6365736615  TIP3      8194            0.0000000000
     49497      8394  TIP3      H1             15.6272697029        7.1681287107      -48.3535889224  TIP3      8194            0.0000000000
     49498      8394  TIP3      H2             16.0948148090        7.5562611605      -46.9594431414  TIP3      8194            0.0000000000
     49499      8395  TIP3      OH2            14.5148291881        4.1296806658      -48.7587285105  TIP3      8195            0.0000000000
     49500      8395  TIP3      H1             14.6689523552        4.7551587500      -49.4907550737  TIP3      8195            0.0000000000
     49501      8395  TIP3      H2             14.5516285808        3.2810862971      -49.2362552468  TIP3      8195            0.0000000000
     49502      8396  TIP3      OH2            13.7185025636        5.4714437520      -43.4329067783  TIP3      8196            0.0000000000
     49503      8396  TIP3      H1             13.5696867655        4.5178778682      -43.4842459002  TIP3      8196            0.0000000000
     49504      8396  TIP3      H2             13.3890076900        5.6831574900      -42.5421680257  TIP3      8196            0.0000000000
     49505      8397  TIP3      OH2            -1.2805747938        7.5182827022      -39.3833356826  TIP3      8197            0.0000000000
     49506      8397  TIP3      H1             -1.1001521457        7.4792473512      -40.3492237495  TIP3      8197            0.0000000000
     49507      8397  TIP3      H2             -0.3747963446        7.4021881826      -39.0360684856  TIP3      8197            0.0000000000
     49508      8398  TIP3      OH2            14.5520658099        7.4456712287      -33.7347811970  TIP3      8198            0.0000000000
     49509      8398  TIP3      H1             15.1735033674        6.6892521271      -33.6288173204  TIP3      8198            0.0000000000
     49510      8398  TIP3      H2             15.1673302542        8.2082981132      -33.7590134763  TIP3      8198            0.0000000000
     49511      8399  TIP3      OH2            16.0742883735        5.3199873125      -33.1046337775  TIP3      8199            0.0000000000
     49512      8399  TIP3      H1             15.1998161276        4.9215854130      -33.2731887929  TIP3      8199            0.0000000000
     49513      8399  TIP3      H2             16.6540047764        4.5449481134      -33.1834810607  TIP3      8199            0.0000000000
     49514      8400  TIP3      OH2            13.8180070621        1.3910502958      -49.9699078643  TIP3      8200            0.0000000000
     49515      8400  TIP3      H1             14.3797832789        0.9980626301      -49.2779656807  TIP3      8200            0.0000000000
     49516      8400  TIP3      H2             12.9285485793        1.0660859873      -49.7599693764  TIP3      8200            0.0000000000
     49517      8401  TIP3      OH2            13.3706291114        3.0409246661      -45.0067706259  TIP3      8201            0.0000000000
     49518      8401  TIP3      H1             13.6795280355        2.1168321011      -44.8606382479  TIP3      8201            0.0000000000
     49519      8401  TIP3      H2             14.1697622529        3.4483018203      -45.3716658003  TIP3      8201            0.0000000000
     49520      8402  TIP3      OH2            14.0221691781        3.6017425928      -39.5468565972  TIP3      8202            0.0000000000
     49521      8402  TIP3      H1             14.9825006412        3.8331845719      -39.5620173159  TIP3      8202            0.0000000000
     49522      8402  TIP3      H2             13.8349899909        3.7421867533      -38.6068484549  TIP3      8202            0.0000000000
     49523      8403  TIP3      OH2            14.0892769305        4.3231498021      -36.7630634771  TIP3      8203            0.0000000000
     49524      8403  TIP3      H1             13.2052123782        4.6124735219      -36.4510221045  TIP3      8203            0.0000000000
     49525      8403  TIP3      H2             14.5218192553        5.1813026703      -36.9912066274  TIP3      8203            0.0000000000
     49526      8404  TIP3      OH2            -1.6566325228        2.8469563789      -33.2782805083  TIP3      8204            0.0000000000
     49527      8404  TIP3      H1             -0.7305822264        2.6611573976      -33.0228244405  TIP3      8204            0.0000000000
     49528      8404  TIP3      H2             -2.1186007862        2.0399713041      -32.9510686011  TIP3      8204            0.0000000000
     49529      8405  TIP3      OH2            16.3635108381       -1.6097033977      -31.4248547900  TIP3      8205            0.0000000000
     49530      8405  TIP3      H1             16.7128732225       -2.2739725783      -32.0458483264  TIP3      8205            0.0000000000
     49531      8405  TIP3      H2             16.4622741252       -0.7988501452      -31.9631984948  TIP3      8205            0.0000000000
     49532      8406  TIP3      OH2            14.0626354610        0.3385296474      -44.9428369989  TIP3      8206            0.0000000000
     49533      8406  TIP3      H1             14.2692052829       -0.0960879830      -44.0871316127  TIP3      8206            0.0000000000
     49534      8406  TIP3      H2             13.4442360328       -0.2879781816      -45.3809550021  TIP3      8206            0.0000000000
     49535      8407  TIP3      OH2            -0.4470385313        1.1398186942      -40.3392804111  TIP3      8207            0.0000000000
     49536      8407  TIP3      H1              0.0595085983        0.2989570834      -40.2114184638  TIP3      8207            0.0000000000
     49537      8407  TIP3      H2              0.2168481292        1.8199231229      -40.1359805071  TIP3      8207            0.0000000000
     49538      8408  TIP3      OH2            -2.0852940328        4.0449135059      -39.2906270441  TIP3      8208            0.0000000000
     49539      8408  TIP3      H1             -1.6117343806        3.9592794890      -40.1533199978  TIP3      8208            0.0000000000
     49540      8408  TIP3      H2             -1.7575533496        4.9458873000      -39.0809345465  TIP3      8208            0.0000000000
     49541      8409  TIP3      OH2            15.8802326420        0.4847257563      -33.0715667107  TIP3      8209            0.0000000000
     49542      8409  TIP3      H1             14.9419983636        0.7568772205      -33.1254504047  TIP3      8209            0.0000000000
     49543      8409  TIP3      H2             15.9142881992       -0.0659056013      -33.8689178163  TIP3      8209            0.0000000000
     49544      8410  TIP3      OH2            15.8916164406        0.3878799474      -48.3555615688  TIP3      8210            0.0000000000
     49545      8410  TIP3      H1             16.3072477916       -0.2935855317      -48.9034941607  TIP3      8210            0.0000000000
     49546      8410  TIP3      H2             16.5857671044        1.0649852339      -48.3462733460  TIP3      8210            0.0000000000
     49547      8411  TIP3      OH2            -1.8121563610        0.4206819559      -45.2724629464  TIP3      8211            0.0000000000
     49548      8411  TIP3      H1             -2.7537312660        0.5947227710      -45.4181401833  TIP3      8211            0.0000000000
     49549      8411  TIP3      H2             -1.4003591723        0.9035105741      -46.0108406899  TIP3      8211            0.0000000000
     49550      8412  TIP3      OH2            12.9292564594       15.3584891337      -43.3437808546  TIP3      8212            0.0000000000
     49551      8412  TIP3      H1             13.6076672984       15.0515553202      -43.9661046068  TIP3      8212            0.0000000000
     49552      8412  TIP3      H2             13.4388686196       15.8536733424      -42.6826322853  TIP3      8212            0.0000000000
     49553      8413  TIP3      OH2            -1.8458433175       -0.8984983802      -36.9861442209  TIP3      8213            0.0000000000
     49554      8413  TIP3      H1             -2.4921482813       -1.1664777122      -36.2962756779  TIP3      8213            0.0000000000
     49555      8413  TIP3      H2             -2.4106089473       -0.3255794298      -37.5235709566  TIP3      8213            0.0000000000
     49556      8414  TIP3      OH2             0.3753116950       12.2528279058      -32.8194211759  TIP3      8214            0.0000000000
     49557      8414  TIP3      H1             -0.4606322941       12.4853843923      -33.2573575901  TIP3      8214            0.0000000000
     49558      8414  TIP3      H2              0.1073891844       12.1895673826      -31.9000510628  TIP3      8214            0.0000000000
     49559      8415  TIP3      OH2             3.2745069211       13.2727273196      -36.5389473967  TIP3      8215            0.0000000000
     49560      8415  TIP3      H1              2.9469966388       14.1404549253      -36.8124151325  TIP3      8215            0.0000000000
     49561      8415  TIP3      H2              4.2010564405       13.3549544919      -36.8450821474  TIP3      8215            0.0000000000
     49562      8416  TIP3      OH2             7.5953255290       14.6961581273      -33.6400858055  TIP3      8216            0.0000000000
     49563      8416  TIP3      H1              7.7312551714       14.3409666264      -32.7302241666  TIP3      8216            0.0000000000
     49564      8416  TIP3      H2              8.4984822220       14.9978015670      -33.8786774255  TIP3      8216            0.0000000000
     49565      8417  TIP3      OH2             9.8825963175       15.9606399283      -34.3259782250  TIP3      8217            0.0000000000
     49566      8417  TIP3      H1             10.6137268684       15.3777236384      -34.5637583112  TIP3      8217            0.0000000000
     49567      8417  TIP3      H2             10.2569317968       16.4012465230      -33.5318979713  TIP3      8217            0.0000000000
     49568      8418  TIP3      OH2            14.9003443039       -1.4225658156      -35.2191964255  TIP3      8218            0.0000000000
     49569      8418  TIP3      H1             14.0699637214       -1.1262142340      -35.6306560764  TIP3      8218            0.0000000000
     49570      8418  TIP3      H2             15.0698510876       -2.2547701244      -35.7257231497  TIP3      8218            0.0000000000
     49571      8419  TIP3      OH2             0.6989433047       16.5044562233      -36.5491550230  TIP3      8219            0.0000000000
     49572      8419  TIP3      H1             -0.0322762465       17.0077988975      -36.9430388182  TIP3      8219            0.0000000000
     49573      8419  TIP3      H2              0.3898779313       16.3169752613      -35.6511667873  TIP3      8219            0.0000000000
     49574      8420  TIP3      OH2             3.1665559855       16.0828752915      -37.4732330773  TIP3      8220            0.0000000000
     49575      8420  TIP3      H1              2.2746761293       16.2367379197      -37.0808295290  TIP3      8220            0.0000000000
     49576      8420  TIP3      H2              3.1137024021       16.6736925262      -38.2473992113  TIP3      8220            0.0000000000
     49577      8421  TIP3      OH2             7.8734869265       15.9976918703      -38.3017338348  TIP3      8221            0.0000000000
     49578      8421  TIP3      H1              7.4130282791       16.5533406622      -38.9485136686  TIP3      8221            0.0000000000
     49579      8421  TIP3      H2              8.0052415887       16.6292900036      -37.5652570021  TIP3      8221            0.0000000000
     49580      8422  TIP3      OH2            10.1597648144       14.8032580497      -37.2701988876  TIP3      8222            0.0000000000
     49581      8422  TIP3      H1              9.3084597385       15.0832183197      -37.6445535171  TIP3      8222            0.0000000000
     49582      8422  TIP3      H2             10.6487440792       15.6390903545      -37.3646408765  TIP3      8222            0.0000000000
     49583      8423  TIP3      OH2            12.7427134446       16.3762123197      -37.0530156588  TIP3      8223            0.0000000000
     49584      8423  TIP3      H1             12.6928016763       17.3350472423      -37.2809335070  TIP3      8223            0.0000000000
     49585      8423  TIP3      H2             12.9544829089       16.0052030652      -37.9314448857  TIP3      8223            0.0000000000
     49586      8424  TIP3      OH2             0.1614460756       15.1556909689      -39.6029968313  TIP3      8224            0.0000000000
     49587      8424  TIP3      H1              0.0769079370       14.6946344465      -38.7412232197  TIP3      8224            0.0000000000
     49588      8424  TIP3      H2              0.9750440298       14.7747773479      -39.9913928579  TIP3      8224            0.0000000000
     49589      8425  TIP3      OH2             2.2352037612       13.8661139201      -40.9486723838  TIP3      8225            0.0000000000
     49590      8425  TIP3      H1              2.0717064372       12.9326742395      -40.7151614271  TIP3      8225            0.0000000000
     49591      8425  TIP3      H2              3.0909498212       14.0231194584      -40.4973661277  TIP3      8225            0.0000000000
     49592      8426  TIP3      OH2             4.8444463728       14.3546679019      -40.0694332671  TIP3      8226            0.0000000000
     49593      8426  TIP3      H1              4.9932503379       13.4287995922      -40.3347545707  TIP3      8226            0.0000000000
     49594      8426  TIP3      H2              4.8838073023       14.2959353631      -39.1048677321  TIP3      8226            0.0000000000
     49595      8427  TIP3      OH2             8.2902396524        0.0042264387      -40.9418323020  TIP3      8227            0.0000000000
     49596      8427  TIP3      H1              7.6166891398       -0.6363913886      -40.6542940915  TIP3      8227            0.0000000000
     49597      8427  TIP3      H2              8.8439407171       -0.5328820603      -41.5197608771  TIP3      8227            0.0000000000
     49598      8428  TIP3      OH2            13.4284037541       -1.9614501975      -40.8702800176  TIP3      8228            0.0000000000
     49599      8428  TIP3      H1             14.0376202826       -1.3649420726      -41.3746689294  TIP3      8228            0.0000000000
     49600      8428  TIP3      H2             12.5478907125       -1.5946112038      -41.0979056188  TIP3      8228            0.0000000000
     49601      8429  TIP3      OH2            15.0929589841       -0.7004609568      -42.5911299420  TIP3      8229            0.0000000000
     49602      8429  TIP3      H1             15.7824951970       -1.2767967169      -43.0051303729  TIP3      8229            0.0000000000
     49603      8429  TIP3      H2             15.6032498694        0.1347811005      -42.4859700216  TIP3      8229            0.0000000000
     49604      8430  TIP3      OH2             0.6608277531       -1.3689922221      -43.0704412362  TIP3      8230            0.0000000000
     49605      8430  TIP3      H1             -0.1354222531       -1.5550198256      -43.6006659909  TIP3      8230            0.0000000000
     49606      8430  TIP3      H2              1.1195543535       -2.2286752997      -43.1420375034  TIP3      8230            0.0000000000
     49607      8431  TIP3      OH2            -0.5898733642       -1.6176818678      -47.4092090293  TIP3      8231            0.0000000000
     49608      8431  TIP3      H1             -0.0587019094       -0.9416791786      -47.8755324807  TIP3      8231            0.0000000000
     49609      8431  TIP3      H2             -1.1086767888       -1.0614071211      -46.8014422802  TIP3      8231            0.0000000000
     49610      8432  TIP3      OH2             5.1305990205       -1.4458518866      -43.3002795485  TIP3      8232            0.0000000000
     49611      8432  TIP3      H1              6.0320565228       -1.0904212366      -43.3754677836  TIP3      8232            0.0000000000
     49612      8432  TIP3      H2              5.1000430406       -1.6671569503      -42.3705399021  TIP3      8232            0.0000000000
     49613      8433  TIP3      OH2            10.8504051549       -1.4282294180      -41.6764700023  TIP3      8233            0.0000000000
     49614      8433  TIP3      H1             10.7950889546       -1.3151255785      -42.6345015697  TIP3      8233            0.0000000000
     49615      8433  TIP3      H2             10.4611483048       -2.3279631160      -41.5423609474  TIP3      8233            0.0000000000
     49616      8434  TIP3      OH2            12.1325266264       -1.4026563405      -46.0044480228  TIP3      8234            0.0000000000
     49617      8434  TIP3      H1             11.3840388623       -0.8117034709      -46.1786266540  TIP3      8234            0.0000000000
     49618      8434  TIP3      H2             11.6788665737       -2.2495150943      -45.7884943990  TIP3      8234            0.0000000000
     49619      8435  TIP3      OH2            -0.6068183197       14.3374924368      -46.4317079352  TIP3      8235            0.0000000000
     49620      8435  TIP3      H1             -1.3521267899       14.3190455630      -47.0506930103  TIP3      8235            0.0000000000
     49621      8435  TIP3      H2             -0.6487259680       15.2708748344      -46.1640770953  TIP3      8235            0.0000000000
     49622      8436  TIP3      OH2             1.2354244711        0.2836140953      -48.8456257941  TIP3      8236            0.0000000000
     49623      8436  TIP3      H1              1.7677293248       -0.3468185645      -49.3422790816  TIP3      8236            0.0000000000
     49624      8436  TIP3      H2              1.8953939178        0.6538488952      -48.2310910698  TIP3      8236            0.0000000000
     49625      8437  TIP3      OH2             6.3093332122        0.5859765289      -46.4607098009  TIP3      8237            0.0000000000
     49626      8437  TIP3      H1              6.5391862806       -0.0097726983      -45.7296398905  TIP3      8237            0.0000000000
     49627      8437  TIP3      H2              6.3441177027        1.4345473362      -45.9637730513  TIP3      8237            0.0000000000
     49628      8438  TIP3      OH2             8.2127475224       15.6349064002      -48.0160379923  TIP3      8238            0.0000000000
     49629      8438  TIP3      H1              9.1488206215       15.8886994983      -48.1889554844  TIP3      8238            0.0000000000
     49630      8438  TIP3      H2              8.0281703967       15.1361640161      -48.8366031271  TIP3      8238            0.0000000000
     49631      8439  TIP3      OH2            14.9432155415       15.1477794172      -45.3113724079  TIP3      8239            0.0000000000
     49632      8439  TIP3      H1             14.7031631018       14.3622074309      -45.8589776434  TIP3      8239            0.0000000000
     49633      8439  TIP3      H2             14.8186705842       15.8898916483      -45.9320432075  TIP3      8239            0.0000000000
     49634      8440  TIP3      OH2             0.5436928558       -0.8263821989      -33.6538836862  TIP3      8240            0.0000000000
     49635      8440  TIP3      H1              0.1554835981       -1.6212082365      -33.2379074956  TIP3      8240            0.0000000000
     49636      8440  TIP3      H2              1.4493186725       -0.8702437305      -33.2604664448  TIP3      8240            0.0000000000
     49637      8441  TIP3      OH2             2.5461942545       -1.4469128631      -31.9919962043  TIP3      8241            0.0000000000
     49638      8441  TIP3      H1              3.4399732691       -1.7830079616      -32.2081630860  TIP3      8241            0.0000000000
     49639      8441  TIP3      H2              2.1741094588       -2.2551932671      -31.5891658903  TIP3      8241            0.0000000000
     49640      8442  TIP3      OH2             1.4932697134       15.5320045601      -49.0875458705  TIP3      8242            0.0000000000
     49641      8442  TIP3      H1              0.9239715094       15.5437287153      -48.3133603416  TIP3      8242            0.0000000000
     49642      8442  TIP3      H2              1.9844115986       14.7002125929      -49.0588571886  TIP3      8242            0.0000000000
     49643      8443  TIP3      OH2            10.9558186445       -2.1524091295      -31.8366782749  TIP3      8243            0.0000000000
     49644      8443  TIP3      H1             11.0485237710       -2.6345426632      -30.9919369108  TIP3      8243            0.0000000000
     49645      8443  TIP3      H2             11.8696872367       -2.1968165765      -32.1909469825  TIP3      8243            0.0000000000
     49646      8444  TIP3      OH2            14.1604272127       13.8899740771      -33.2108651885  TIP3      8244            0.0000000000
     49647      8444  TIP3      H1             13.3567949401       13.7541952591      -33.7585800717  TIP3      8244            0.0000000000
     49648      8444  TIP3      H2             14.0444398936       14.8370679040      -32.9941651941  TIP3      8244            0.0000000000
     49649      8445  TIP3      OH2            28.5946404875        7.7768011635      -43.2076464363  TIP3      8245            0.0000000000
     49650      8445  TIP3      H1             28.5979296183        8.7552752448      -43.2847615026  TIP3      8245            0.0000000000
     49651      8445  TIP3      H2             27.8816636406        7.5318873105      -43.8213023223  TIP3      8245            0.0000000000
     49652      8446  TIP3      OH2            27.4028411501        6.9517308188      -39.8051591356  TIP3      8246            0.0000000000
     49653      8446  TIP3      H1             27.4708884185        6.1806516088      -39.2556122030  TIP3      8246            0.0000000000
     49654      8446  TIP3      H2             27.1072531650        6.5329165864      -40.6415043832  TIP3      8246            0.0000000000
     49655      8447  TIP3      OH2            19.6318330252        6.3131132628      -38.4400694643  TIP3      8247            0.0000000000
     49656      8447  TIP3      H1             19.8100403799        5.9518167020      -37.5503081894  TIP3      8247            0.0000000000
     49657      8447  TIP3      H2             20.2419804173        7.0759535549      -38.2570938018  TIP3      8247            0.0000000000
     49658      8448  TIP3      OH2            31.1359081507        9.9741589604      -41.4424923497  TIP3      8248            0.0000000000
     49659      8448  TIP3      H1             30.7443910033        9.2561412030      -40.9508362728  TIP3      8248            0.0000000000
     49660      8448  TIP3      H2             31.1781648568       10.6849299320      -40.7773476486  TIP3      8248            0.0000000000
     49661      8449  TIP3      OH2            20.7370252511       11.1586027392      -39.7106581776  TIP3      8249            0.0000000000
     49662      8449  TIP3      H1             20.4258766451       10.2727090672      -39.9766402790  TIP3      8249            0.0000000000
     49663      8449  TIP3      H2             21.6842968473       10.9565592517      -39.6114302272  TIP3      8249            0.0000000000
     49664      8450  TIP3      OH2            17.3662907953        4.6978688489      -44.1959955318  TIP3      8250            0.0000000000
     49665      8450  TIP3      H1             16.9401999226        5.5747056718      -44.2449754459  TIP3      8250            0.0000000000
     49666      8450  TIP3      H2             16.8062102773        4.1642652252      -44.7730471581  TIP3      8250            0.0000000000
     49667      8451  TIP3      OH2            18.0914243195        6.9228103929      -42.0379610507  TIP3      8251            0.0000000000
     49668      8451  TIP3      H1             18.3810184251        6.1155414845      -41.5688090121  TIP3      8251            0.0000000000
     49669      8451  TIP3      H2             18.7843860437        7.0334253925      -42.7057766202  TIP3      8251            0.0000000000
     49670      8452  TIP3      OH2            28.2715737120       15.1348622439      -41.2031092431  TIP3      8252            0.0000000000
     49671      8452  TIP3      H1             28.9177105538       14.4467845533      -41.4971979325  TIP3      8252            0.0000000000
     49672      8452  TIP3      H2             28.0489161341       14.7900283617      -40.3387554388  TIP3      8252            0.0000000000
     49673      8453  TIP3      OH2            25.8568614935        9.3859419194      -39.2230787407  TIP3      8253            0.0000000000
     49674      8453  TIP3      H1             26.1655164515        8.8391417838      -39.9599184198  TIP3      8253            0.0000000000
     49675      8453  TIP3      H2             26.6627622535        9.6512688285      -38.7604380155  TIP3      8253            0.0000000000
     49676      8454  TIP3      OH2            34.4746862728        1.0728878820      -38.5317065871  TIP3      8254            0.0000000000
     49677      8454  TIP3      H1             34.5981862644        1.6811537550      -37.7712931354  TIP3      8254            0.0000000000
     49678      8454  TIP3      H2             35.0229431340        1.5080375866      -39.2038797603  TIP3      8254            0.0000000000
     49679      8455  TIP3      OH2            28.9221917517        3.8658944274      -38.9559117535  TIP3      8255            0.0000000000
     49680      8455  TIP3      H1             29.1962343035        2.9277098614      -38.9244383114  TIP3      8255            0.0000000000
     49681      8455  TIP3      H2             28.9478344680        3.9994235818      -39.9254385457  TIP3      8255            0.0000000000
     49682      8456  TIP3      OH2            22.1339982475        1.9863035479      -41.7631352751  TIP3      8256            0.0000000000
     49683      8456  TIP3      H1             22.0774779834        2.8205655707      -42.2774513853  TIP3      8256            0.0000000000
     49684      8456  TIP3      H2             21.6737790746        1.3884508024      -42.4144785862  TIP3      8256            0.0000000000
     49685      8457  TIP3      OH2            29.8546654188        2.0672993990      -43.3545063199  TIP3      8257            0.0000000000
     49686      8457  TIP3      H1             30.5028174448        1.7443494690      -42.6870019210  TIP3      8257            0.0000000000
     49687      8457  TIP3      H2             30.4201282625        2.6301485642      -43.9059957607  TIP3      8257            0.0000000000
     49688      8458  TIP3      OH2            18.7236194748        4.3765693355      -41.0115693388  TIP3      8258            0.0000000000
     49689      8458  TIP3      H1             19.3941288429        3.8654216041      -40.5260813879  TIP3      8258            0.0000000000
     49690      8458  TIP3      H2             18.8371539710        4.0617948401      -41.9172857949  TIP3      8258            0.0000000000
     49691      8459  TIP3      OH2            23.9273910517        5.9388554063      -41.6898843302  TIP3      8259            0.0000000000
     49692      8459  TIP3      H1             24.5997647924        5.3751557593      -41.2909282148  TIP3      8259            0.0000000000
     49693      8459  TIP3      H2             23.3817999080        5.3236226142      -42.2108025574  TIP3      8259            0.0000000000
     49694      8460  TIP3      OH2            34.9010792264        2.4827155030      -36.2570597334  TIP3      8260            0.0000000000
     49695      8460  TIP3      H1             34.2829283610        3.2375228279      -36.3833338017  TIP3      8260            0.0000000000
     49696      8460  TIP3      H2             34.9209496841        2.4215545132      -35.2925949016  TIP3      8260            0.0000000000
     49697      8461  TIP3      OH2            21.0338435941        0.8915912010      -37.6879461497  TIP3      8261            0.0000000000
     49698      8461  TIP3      H1             20.7070429875        1.4493125878      -38.4236954299  TIP3      8261            0.0000000000
     49699      8461  TIP3      H2             20.3508224856        1.0906188140      -36.9970240488  TIP3      8261            0.0000000000
     49700      8462  TIP3      OH2            28.3063839953       10.3558980844      -44.1374128779  TIP3      8262            0.0000000000
     49701      8462  TIP3      H1             28.0275166320       10.0711728355      -45.0215622395  TIP3      8262            0.0000000000
     49702      8462  TIP3      H2             28.0094753222       11.2963742133      -44.1058544692  TIP3      8262            0.0000000000
     49703      8463  TIP3      OH2            23.9417642236        8.6344603801      -37.3672556058  TIP3      8263            0.0000000000
     49704      8463  TIP3      H1             22.9992191873        8.9606519114      -37.2335847626  TIP3      8263            0.0000000000
     49705      8463  TIP3      H2             24.3379316448        9.3495320410      -37.8519077748  TIP3      8263            0.0000000000
     49706      8464  TIP3      OH2            31.6298590753        1.4409967565      -41.3318403205  TIP3      8264            0.0000000000
     49707      8464  TIP3      H1             31.4395126152        0.6455703489      -40.8270647953  TIP3      8264            0.0000000000
     49708      8464  TIP3      H2             32.3565100493        1.8251990505      -40.8174811861  TIP3      8264            0.0000000000
     49709      8465  TIP3      OH2            20.6051467029        2.7230144583      -39.6592815497  TIP3      8265            0.0000000000
     49710      8465  TIP3      H1             21.1933975290        3.4360158706      -39.3273937461  TIP3      8265            0.0000000000
     49711      8465  TIP3      H2             21.0931005921        2.3196282686      -40.4106391788  TIP3      8265            0.0000000000
     49712      8466  TIP3      OH2            22.0909519049       10.7578003276      -36.4738259278  TIP3      8266            0.0000000000
     49713      8466  TIP3      H1             21.8933544850       11.5283257333      -37.0097667355  TIP3      8266            0.0000000000
     49714      8466  TIP3      H2             21.1879665678       10.4100366942      -36.2510635365  TIP3      8266            0.0000000000
     49715      8467  TIP3      OH2            18.0413323507       10.1239402041      -45.8000732641  TIP3      8267            0.0000000000
     49716      8467  TIP3      H1             17.8182237920       10.4366192806      -46.6987215465  TIP3      8267            0.0000000000
     49717      8467  TIP3      H2             18.1277787282       10.9659953880      -45.3113877265  TIP3      8267            0.0000000000
     49718      8468  TIP3      OH2            31.6793355701       11.8149577641      -39.0777874436  TIP3      8268            0.0000000000
     49719      8468  TIP3      H1             30.7169249384       11.9429104302      -38.9619854066  TIP3      8268            0.0000000000
     49720      8468  TIP3      H2             31.9521081176       12.7287374922      -39.2832087546  TIP3      8268            0.0000000000
     49721      8469  TIP3      OH2            31.9804224618        0.1011931585      -37.6864401199  TIP3      8269            0.0000000000
     49722      8469  TIP3      H1             31.2615210635        0.7379228671      -37.7814277913  TIP3      8269            0.0000000000
     49723      8469  TIP3      H2             32.7032732303        0.5056342678      -38.2071632652  TIP3      8269            0.0000000000
     49724      8470  TIP3      OH2            24.9499805230       -1.7692487348      -40.2341292910  TIP3      8270            0.0000000000
     49725      8470  TIP3      H1             24.8378431095       -2.7408464234      -40.2988952362  TIP3      8270            0.0000000000
     49726      8470  TIP3      H2             24.0690262612       -1.5044014002      -39.9039238632  TIP3      8270            0.0000000000
     49727      8471  TIP3      OH2            29.9446183993       13.5900777381      -42.4721999737  TIP3      8271            0.0000000000
     49728      8471  TIP3      H1             30.3599552117       12.8715466028      -42.9942192972  TIP3      8271            0.0000000000
     49729      8471  TIP3      H2             30.3679192003       14.3782661556      -42.8772199014  TIP3      8271            0.0000000000
     49730      8472  TIP3      OH2            31.1452763317       11.5123718101      -43.9525748145  TIP3      8272            0.0000000000
     49731      8472  TIP3      H1             30.8557933149       10.8268618885      -44.5807598731  TIP3      8272            0.0000000000
     49732      8472  TIP3      H2             31.1776372780       11.0110710060      -43.1199399680  TIP3      8272            0.0000000000
     49733      8473  TIP3      OH2            32.7581959832       10.1179454096      -35.4760493956  TIP3      8273            0.0000000000
     49734      8473  TIP3      H1             32.9074899014        9.4616606448      -36.1931760001  TIP3      8273            0.0000000000
     49735      8473  TIP3      H2             32.9723621237       10.9579064383      -35.9184827210  TIP3      8273            0.0000000000
     49736      8474  TIP3      OH2            27.2521735021        7.0376413617      -45.7148725219  TIP3      8274            0.0000000000
     49737      8474  TIP3      H1             26.5590820882        7.6191953252      -46.0891030908  TIP3      8274            0.0000000000
     49738      8474  TIP3      H2             27.9671952962        7.1072835389      -46.3759771521  TIP3      8274            0.0000000000
     49739      8475  TIP3      OH2            27.3610726034        5.5009906555      -48.6771836673  TIP3      8275            0.0000000000
     49740      8475  TIP3      H1             28.0791017534        5.5380819667      -48.0169550391  TIP3      8275            0.0000000000
     49741      8475  TIP3      H2             27.6946372177        4.8020617405      -49.2687315522  TIP3      8275            0.0000000000
     49742      8476  TIP3      OH2            34.6420749645        6.4376046718      -37.4358131950  TIP3      8276            0.0000000000
     49743      8476  TIP3      H1             33.9815796061        7.1566689897      -37.3952879598  TIP3      8276            0.0000000000
     49744      8476  TIP3      H2             35.1438282907        6.6774914788      -38.2393817420  TIP3      8276            0.0000000000
     49745      8477  TIP3      OH2            30.7039413761        7.2274016482      -44.7814001000  TIP3      8277            0.0000000000
     49746      8477  TIP3      H1             29.9597589247        7.4591255766      -44.1749209655  TIP3      8277            0.0000000000
     49747      8477  TIP3      H2             31.1901893886        6.5527312774      -44.2750780916  TIP3      8277            0.0000000000
     49748      8478  TIP3      OH2            30.6889604991        5.3827572039      -35.6473080834  TIP3      8278            0.0000000000
     49749      8478  TIP3      H1             30.6734756421        6.1924249402      -35.1109656448  TIP3      8278            0.0000000000
     49750      8478  TIP3      H2             30.0253484632        5.6290527850      -36.3241866636  TIP3      8278            0.0000000000
     49751      8479  TIP3      OH2            22.3233619320        7.8777689188      -42.8912785015  TIP3      8279            0.0000000000
     49752      8479  TIP3      H1             21.9916086488        7.4941768671      -43.7396729036  TIP3      8279            0.0000000000
     49753      8479  TIP3      H2             22.9341140303        7.2037435257      -42.5389393822  TIP3      8279            0.0000000000
     49754      8480  TIP3      OH2            23.6579859363       11.2984913765      -40.2171086899  TIP3      8280            0.0000000000
     49755      8480  TIP3      H1             23.6176096129       10.7245748874      -40.9928292696  TIP3      8280            0.0000000000
     49756      8480  TIP3      H2             24.3981643411       10.9095324872      -39.7274948069  TIP3      8280            0.0000000000
     49757      8481  TIP3      OH2            22.8141943703        6.5192374924      -39.2043961444  TIP3      8281            0.0000000000
     49758      8481  TIP3      H1             23.1854504181        6.8152307935      -40.0521554884  TIP3      8281            0.0000000000
     49759      8481  TIP3      H2             22.9309018539        7.2913797920      -38.6065319672  TIP3      8281            0.0000000000
     49760      8482  TIP3      OH2            29.0630093654       12.1689767620      -38.4967793778  TIP3      8282            0.0000000000
     49761      8482  TIP3      H1             28.7927844541       12.8400982782      -37.8558978291  TIP3      8282            0.0000000000
     49762      8482  TIP3      H2             28.8058674049       11.3378774055      -38.0606256603  TIP3      8282            0.0000000000
     49763      8483  TIP3      OH2            23.6443517131       11.0916002598      -34.4688184697  TIP3      8283            0.0000000000
     49764      8483  TIP3      H1             23.1646879794       11.8064135393      -34.0197769721  TIP3      8283            0.0000000000
     49765      8483  TIP3      H2             22.9905554343       10.8519949943      -35.1928106577  TIP3      8283            0.0000000000
     49766      8484  TIP3      OH2            29.5456621076        6.4248353982      -47.1154542804  TIP3      8284            0.0000000000
     49767      8484  TIP3      H1             30.1234732671        6.5969465227      -46.3339202756  TIP3      8284            0.0000000000
     49768      8484  TIP3      H2             30.0323863376        6.8961062601      -47.8355106792  TIP3      8284            0.0000000000
     49769      8485  TIP3      OH2            20.1839334218        6.9184560945      -34.6995665509  TIP3      8285            0.0000000000
     49770      8485  TIP3      H1             20.6004075940        7.7933114892      -34.5736295573  TIP3      8285            0.0000000000
     49771      8485  TIP3      H2             19.7336820977        7.2120768348      -35.5162964467  TIP3      8285            0.0000000000
     49772      8486  TIP3      OH2            27.3107962741       13.1467476185      -43.6703014942  TIP3      8286            0.0000000000
     49773      8486  TIP3      H1             27.7293437613       13.4424157968      -42.8517082222  TIP3      8286            0.0000000000
     49774      8486  TIP3      H2             26.7342321683       13.8871531122      -43.8862421182  TIP3      8286            0.0000000000
     49775      8487  TIP3      OH2            21.8480330288       13.1184573486      -33.7644918312  TIP3      8287            0.0000000000
     49776      8487  TIP3      H1             21.7986411571       12.9835540262      -34.7312834674  TIP3      8287            0.0000000000
     49777      8487  TIP3      H2             20.9225971456       12.9339316773      -33.5120993473  TIP3      8287            0.0000000000
     49778      8488  TIP3      OH2            33.3492359377       -1.8756431460      -47.2422169198  TIP3      8288            0.0000000000
     49779      8488  TIP3      H1             32.3927707123       -1.7777917079      -46.9957904480  TIP3      8288            0.0000000000
     49780      8488  TIP3      H2             33.4902315891       -1.0123033491      -47.6749469002  TIP3      8288            0.0000000000
     49781      8489  TIP3      OH2            21.2712275689        6.8972887100      -45.2310383422  TIP3      8289            0.0000000000
     49782      8489  TIP3      H1             20.9954001316        7.6669538539      -45.7728056395  TIP3      8289            0.0000000000
     49783      8489  TIP3      H2             20.6373702684        6.2225203093      -45.4814907815  TIP3      8289            0.0000000000
     49784      8490  TIP3      OH2            34.3833615480       12.5304207083      -48.7625879110  TIP3      8290            0.0000000000
     49785      8490  TIP3      H1             34.5436382585       13.4825467179      -48.6620109549  TIP3      8290            0.0000000000
     49786      8490  TIP3      H2             35.2782189502       12.1486256301      -48.8489490865  TIP3      8290            0.0000000000
     49787      8491  TIP3      OH2            17.3289626939        9.3483607533      -36.3515534076  TIP3      8291            0.0000000000
     49788      8491  TIP3      H1             16.9512371832        9.2350408418      -37.2376017777  TIP3      8291            0.0000000000
     49789      8491  TIP3      H2             17.4959230622        8.4030283730      -36.1404921216  TIP3      8291            0.0000000000
     49790      8492  TIP3      OH2            17.1562567843       12.0531614843      -39.5824616034  TIP3      8292            0.0000000000
     49791      8492  TIP3      H1             18.1153630871       11.9285229384      -39.5835093653  TIP3      8292            0.0000000000
     49792      8492  TIP3      H2             17.0516298509       12.8814030811      -39.0949240912  TIP3      8292            0.0000000000
     49793      8493  TIP3      OH2            35.3974782452       12.7768428896      -33.8890746499  TIP3      8293            0.0000000000
     49794      8493  TIP3      H1             35.2764301573       11.8162744769      -33.9291463728  TIP3      8293            0.0000000000
     49795      8493  TIP3      H2             34.5267232628       13.0199398410      -33.5079114750  TIP3      8293            0.0000000000
     49796      8494  TIP3      OH2            26.3482704414       12.2889493209      -35.0412736867  TIP3      8294            0.0000000000
     49797      8494  TIP3      H1             26.3958755681       13.1312855653      -34.5380574761  TIP3      8294            0.0000000000
     49798      8494  TIP3      H2             25.4710335667       11.9462943848      -34.7777819014  TIP3      8294            0.0000000000
     49799      8495  TIP3      OH2            26.7638706870       16.0500383038      -45.2436791174  TIP3      8295            0.0000000000
     49800      8495  TIP3      H1             26.7050911768       15.9764511529      -46.2088984566  TIP3      8295            0.0000000000
     49801      8495  TIP3      H2             26.7986991882       17.0055312993      -45.0749737559  TIP3      8295            0.0000000000
     49802      8496  TIP3      OH2            20.4123657730       14.9393954357      -43.3871757192  TIP3      8296            0.0000000000
     49803      8496  TIP3      H1             20.5671894746       14.5061750850      -42.5169609400  TIP3      8296            0.0000000000
     49804      8496  TIP3      H2             19.5748502029       14.5219328755      -43.6454041935  TIP3      8296            0.0000000000
     49805      8497  TIP3      OH2            29.7194504414       15.3249319997      -48.2093294388  TIP3      8297            0.0000000000
     49806      8497  TIP3      H1             30.2122577629       14.5898416591      -48.6593872637  TIP3      8297            0.0000000000
     49807      8497  TIP3      H2             29.8648969668       15.0219839709      -47.3002770348  TIP3      8297            0.0000000000
     49808      8498  TIP3      OH2            29.5122424167       15.2147572259      -45.4264723252  TIP3      8298            0.0000000000
     49809      8498  TIP3      H1             28.5479951884       15.2604003081      -45.2899567852  TIP3      8298            0.0000000000
     49810      8498  TIP3      H2             29.7539286380       14.4412924264      -44.8991667327  TIP3      8298            0.0000000000
     49811      8499  TIP3      OH2            32.5303808986        4.2348509913      -33.4315442171  TIP3      8299            0.0000000000
     49812      8499  TIP3      H1             32.0491885458        4.6895328795      -34.1426499205  TIP3      8299            0.0000000000
     49813      8499  TIP3      H2             32.4952973262        3.3183700872      -33.7402454904  TIP3      8299            0.0000000000
     49814      8500  TIP3      OH2            19.6115364068       10.7258983297      -35.3913951405  TIP3      8300            0.0000000000
     49815      8500  TIP3      H1             19.8960988218       10.2601732690      -34.5772489525  TIP3      8300            0.0000000000
     49816      8500  TIP3      H2             18.8222567903       10.2172759158      -35.6574962255  TIP3      8300            0.0000000000
     49817      8501  TIP3      OH2            22.3713869959       -0.7947232060      -39.5463288661  TIP3      8301            0.0000000000
     49818      8501  TIP3      H1             21.4504360450       -1.0194298560      -39.8294008077  TIP3      8301            0.0000000000
     49819      8501  TIP3      H2             22.1758109109       -0.0639448835      -38.9438310095  TIP3      8301            0.0000000000
     49820      8502  TIP3      OH2            26.9930794141       -1.2168901011      -36.1118274529  TIP3      8302            0.0000000000
     49821      8502  TIP3      H1             27.3848415568       -1.6410493710      -35.3256627188  TIP3      8302            0.0000000000
     49822      8502  TIP3      H2             26.0223815698       -1.3344506902      -35.9636826190  TIP3      8302            0.0000000000
     49823      8503  TIP3      OH2            30.2735109474        2.6229497298      -35.2151150977  TIP3      8303            0.0000000000
     49824      8503  TIP3      H1             29.7111976029        2.4159558516      -34.4305954137  TIP3      8303            0.0000000000
     49825      8503  TIP3      H2             30.1062185062        3.5536004463      -35.4314213377  TIP3      8303            0.0000000000
     49826      8504  TIP3      OH2            31.2735259131        7.3323547076      -48.9165943546  TIP3      8304            0.0000000000
     49827      8504  TIP3      H1             31.1362284627        7.2062250525      -49.8708559254  TIP3      8304            0.0000000000
     49828      8504  TIP3      H2             32.0464632001        7.9158755980      -49.0552722322  TIP3      8304            0.0000000000
     49829      8505  TIP3      OH2            26.6654075814        1.3822696998      -48.7705546729  TIP3      8305            0.0000000000
     49830      8505  TIP3      H1             26.3169887305        1.3052771161      -47.8605089020  TIP3      8305            0.0000000000
     49831      8505  TIP3      H2             26.3588725747        0.5285029673      -49.1011385739  TIP3      8305            0.0000000000
     49832      8506  TIP3      OH2            22.4579298370        4.0657955797      -38.2555283176  TIP3      8306            0.0000000000
     49833      8506  TIP3      H1             21.7435323156        4.0754493616      -37.5855815068  TIP3      8306            0.0000000000
     49834      8506  TIP3      H2             22.3670762465        4.9972054988      -38.5799541866  TIP3      8306            0.0000000000
     49835      8507  TIP3      OH2            22.4328819346        4.1259992507      -43.3161356075  TIP3      8307            0.0000000000
     49836      8507  TIP3      H1             21.4737532508        3.9840598620      -43.4857269505  TIP3      8307            0.0000000000
     49837      8507  TIP3      H2             22.7753438321        3.9372678811      -44.2218983482  TIP3      8307            0.0000000000
     49838      8508  TIP3      OH2            27.9108804706        4.7162840517      -44.5885755410  TIP3      8308            0.0000000000
     49839      8508  TIP3      H1             27.5423982109        5.5487481333      -44.9635101192  TIP3      8308            0.0000000000
     49840      8508  TIP3      H2             28.6181194714        4.5321286108      -45.2360357912  TIP3      8308            0.0000000000
     49841      8509  TIP3      OH2            26.9865602999        4.9043345869      -33.1672523615  TIP3      8309            0.0000000000
     49842      8509  TIP3      H1             26.4566121384        4.1412023753      -32.8258610003  TIP3      8309            0.0000000000
     49843      8509  TIP3      H2             27.8130403628        4.7975598923      -32.6636453877  TIP3      8309            0.0000000000
     49844      8510  TIP3      OH2            28.8961367467        4.1999237189      -41.7235582709  TIP3      8310            0.0000000000
     49845      8510  TIP3      H1             28.7096948336        4.7634647231      -42.4968430887  TIP3      8310            0.0000000000
     49846      8510  TIP3      H2             29.0780240816        3.3650713459      -42.2045136009  TIP3      8310            0.0000000000
     49847      8511  TIP3      OH2            20.0872603232        4.3139462394      -36.5299942894  TIP3      8311            0.0000000000
     49848      8511  TIP3      H1             20.1416088921        4.7890795982      -35.6765204468  TIP3      8311            0.0000000000
     49849      8511  TIP3      H2             19.6220540919        3.4980580551      -36.3091535067  TIP3      8311            0.0000000000
     49850      8512  TIP3      OH2            23.4702247050        1.7184900870      -49.6810323553  TIP3      8312            0.0000000000
     49851      8512  TIP3      H1             23.0271293997        1.3230743113      -48.9020867854  TIP3      8312            0.0000000000
     49852      8512  TIP3      H2             22.7519770838        2.1182464011      -50.1757669188  TIP3      8312            0.0000000000
     49853      8513  TIP3      OH2            16.7295462916        1.4474525975      -42.5473618761  TIP3      8313            0.0000000000
     49854      8513  TIP3      H1             17.4146891008        1.4063682097      -41.8494188555  TIP3      8313            0.0000000000
     49855      8513  TIP3      H2             17.1764831797        1.0743747322      -43.3304541950  TIP3      8313            0.0000000000
     49856      8514  TIP3      OH2            18.0130349589        2.1678907909      -47.1799014699  TIP3      8314            0.0000000000
     49857      8514  TIP3      H1             18.5060862204        2.7796556644      -47.7575677696  TIP3      8314            0.0000000000
     49858      8514  TIP3      H2             17.3230941895        2.7952527239      -46.8759937855  TIP3      8314            0.0000000000
     49859      8515  TIP3      OH2            28.3222524331        5.6072249879      -37.0455011132  TIP3      8315            0.0000000000
     49860      8515  TIP3      H1             28.5772097226        4.9385816776      -37.7302800697  TIP3      8315            0.0000000000
     49861      8515  TIP3      H2             27.7195675484        5.0751324903      -36.4661707550  TIP3      8315            0.0000000000
     49862      8516  TIP3      OH2            25.1597193704        1.5864381619      -42.5140388908  TIP3      8316            0.0000000000
     49863      8516  TIP3      H1             24.2136471066        1.3630279005      -42.4424720933  TIP3      8316            0.0000000000
     49864      8516  TIP3      H2             25.6028890023        1.3957731368      -41.6686076982  TIP3      8316            0.0000000000
     49865      8517  TIP3      OH2            19.7944500172        3.2944525007      -43.4925592780  TIP3      8317            0.0000000000
     49866      8517  TIP3      H1             18.9030957120        3.4693365338      -43.8669582241  TIP3      8317            0.0000000000
     49867      8517  TIP3      H2             20.0431012725        2.4455829813      -43.8929706214  TIP3      8317            0.0000000000
     49868      8518  TIP3      OH2            23.4141085503        3.3922686097      -45.7903571249  TIP3      8318            0.0000000000
     49869      8518  TIP3      H1             24.3848766363        3.4567375707      -45.6999556488  TIP3      8318            0.0000000000
     49870      8518  TIP3      H2             23.1825002061        4.0065960691      -46.5194091218  TIP3      8318            0.0000000000
     49871      8519  TIP3      OH2            29.3552351102        1.0056159974      -39.1115531665  TIP3      8319            0.0000000000
     49872      8519  TIP3      H1             28.6791094719        1.0398562147      -38.4013925870  TIP3      8319            0.0000000000
     49873      8519  TIP3      H2             28.8677010555        0.7254271031      -39.8954300280  TIP3      8319            0.0000000000
     49874      8520  TIP3      OH2            22.1478838874        4.5443276773      -48.2422957111  TIP3      8320            0.0000000000
     49875      8520  TIP3      H1             21.5482556453        4.1996115586      -48.9067300924  TIP3      8320            0.0000000000
     49876      8520  TIP3      H2             22.9517221947        4.7595698271      -48.7398749750  TIP3      8320            0.0000000000
     49877      8521  TIP3      OH2            32.5682790037       16.6372690920      -32.7841647232  TIP3      8321            0.0000000000
     49878      8521  TIP3      H1             32.8348018772       17.0204601856      -33.6379609210  TIP3      8321            0.0000000000
     49879      8521  TIP3      H2             33.2927124471       16.9566860714      -32.2263448081  TIP3      8321            0.0000000000
     49880      8522  TIP3      OH2            20.2354110297        9.2155680501      -33.2103040849  TIP3      8322            0.0000000000
     49881      8522  TIP3      H1             20.9761215420        9.3513408565      -32.6039771865  TIP3      8322            0.0000000000
     49882      8522  TIP3      H2             19.4669718155        9.1874650407      -32.6061771058  TIP3      8322            0.0000000000
     49883      8523  TIP3      OH2            26.1409238842        4.4168901655      -40.4850051991  TIP3      8323            0.0000000000
     49884      8523  TIP3      H1             26.8795775910        4.0114973075      -40.9778202305  TIP3      8323            0.0000000000
     49885      8523  TIP3      H2             26.1695425891        3.9577527769      -39.6332138306  TIP3      8323            0.0000000000
     49886      8524  TIP3      OH2            21.2933122571        0.6548874708      -43.9814967563  TIP3      8324            0.0000000000
     49887      8524  TIP3      H1             20.9326057896       -0.2534494337      -44.0352566240  TIP3      8324            0.0000000000
     49888      8524  TIP3      H2             22.0416163359        0.5748228397      -44.5864831159  TIP3      8324            0.0000000000
     49889      8525  TIP3      OH2            24.8962953587        2.8975498176      -38.1120972354  TIP3      8325            0.0000000000
     49890      8525  TIP3      H1             24.0493099199        3.3519606897      -37.9080057825  TIP3      8325            0.0000000000
     49891      8525  TIP3      H2             25.4341913041        3.1441668047      -37.3262061074  TIP3      8325            0.0000000000
     49892      8526  TIP3      OH2            25.4841521733        9.0566839097      -46.3294797577  TIP3      8326            0.0000000000
     49893      8526  TIP3      H1             24.6777555511        8.6107202831      -46.6633838987  TIP3      8326            0.0000000000
     49894      8526  TIP3      H2             25.2561682394        9.1978412442      -45.3873152140  TIP3      8326            0.0000000000
     49895      8527  TIP3      OH2            32.6532043834        8.2701331958      -37.5387306305  TIP3      8327            0.0000000000
     49896      8527  TIP3      H1             33.2206166260        8.7477618881      -38.1674838016  TIP3      8327            0.0000000000
     49897      8527  TIP3      H2             31.8082245557        8.3190103077      -38.0168650192  TIP3      8327            0.0000000000
     49898      8528  TIP3      OH2            29.2582573368        1.9081134701      -47.9978590603  TIP3      8328            0.0000000000
     49899      8528  TIP3      H1             28.3442956340        2.0607182012      -48.2776331276  TIP3      8328            0.0000000000
     49900      8528  TIP3      H2             29.6086091323        2.8067070967      -47.8386789943  TIP3      8328            0.0000000000
     49901      8529  TIP3      OH2            26.9398905495        9.3118330714      -35.1389019579  TIP3      8329            0.0000000000
     49902      8529  TIP3      H1             26.6304128556        8.9173868867      -34.3095326215  TIP3      8329            0.0000000000
     49903      8529  TIP3      H2             26.7164264099       10.2431311799      -34.9941434363  TIP3      8329            0.0000000000
     49904      8530  TIP3      OH2            30.0279493802        3.8515443258      -46.4784386623  TIP3      8330            0.0000000000
     49905      8530  TIP3      H1             30.9190892800        3.6644750352      -46.1176134595  TIP3      8330            0.0000000000
     49906      8530  TIP3      H2             30.1435677336        4.6324424530      -47.0433380845  TIP3      8330            0.0000000000
     49907      8531  TIP3      OH2            20.5657827112        8.4520928470      -40.5687980418  TIP3      8331            0.0000000000
     49908      8531  TIP3      H1             21.2829794920        8.3709661176      -41.2181106016  TIP3      8331            0.0000000000
     49909      8531  TIP3      H2             20.6421881264        7.6330357064      -40.0516474526  TIP3      8331            0.0000000000
     49910      8532  TIP3      OH2            27.6123636080       10.5406489096      -47.2958780002  TIP3      8332            0.0000000000
     49911      8532  TIP3      H1             27.2351631132       11.3816993470      -46.9674137790  TIP3      8332            0.0000000000
     49912      8532  TIP3      H2             26.8544242493        9.9393591316      -47.1298538933  TIP3      8332            0.0000000000
     49913      8533  TIP3      OH2            17.4842584121        6.9064447443      -35.2563474104  TIP3      8333            0.0000000000
     49914      8533  TIP3      H1             17.8115560048        6.4395490619      -34.4590920185  TIP3      8333            0.0000000000
     49915      8533  TIP3      H2             16.9658316979        6.2338856459      -35.7230136996  TIP3      8333            0.0000000000
     49916      8534  TIP3      OH2            24.6030633246        6.4432090580      -33.1165455822  TIP3      8334            0.0000000000
     49917      8534  TIP3      H1             24.2501902161        6.1200050600      -33.9609814245  TIP3      8334            0.0000000000
     49918      8534  TIP3      H2             25.5116133187        6.0820568827      -33.0986133874  TIP3      8334            0.0000000000
     49919      8535  TIP3      OH2            29.2429687386       11.7210015305      -35.1600704143  TIP3      8335            0.0000000000
     49920      8535  TIP3      H1             28.3248335498       11.9530788677      -35.3792610569  TIP3      8335            0.0000000000
     49921      8535  TIP3      H2             29.2418073041       12.0484733488      -34.2344597407  TIP3      8335            0.0000000000
     49922      8536  TIP3      OH2            34.9641798685        3.9419399211      -46.7158227291  TIP3      8336            0.0000000000
     49923      8536  TIP3      H1             34.3945939569        3.6645647978      -47.4678882540  TIP3      8336            0.0000000000
     49924      8536  TIP3      H2             35.0209754172        4.8812487531      -46.9932008540  TIP3      8336            0.0000000000
     49925      8537  TIP3      OH2            34.9152280156        9.7890274524      -33.9519530255  TIP3      8337            0.0000000000
     49926      8537  TIP3      H1             34.0314460333       10.0140080194      -34.3293852582  TIP3      8337            0.0000000000
     49927      8537  TIP3      H2             35.4711106580        9.7634849826      -34.7604015575  TIP3      8337            0.0000000000
     49928      8538  TIP3      OH2            33.2637210167       12.7461363552      -46.3544380020  TIP3      8338            0.0000000000
     49929      8538  TIP3      H1             32.8516155615       11.9273875008      -46.0604236558  TIP3      8338            0.0000000000
     49930      8538  TIP3      H2             33.5381950316       12.5448685184      -47.2700530652  TIP3      8338            0.0000000000
     49931      8539  TIP3      OH2            30.4117602157        7.5599025393      -39.2212465082  TIP3      8339            0.0000000000
     49932      8539  TIP3      H1             29.5060651094        7.3598442624      -39.4693469071  TIP3      8339            0.0000000000
     49933      8539  TIP3      H2             30.8922633810        6.8470889339      -39.6987897152  TIP3      8339            0.0000000000
     49934      8540  TIP3      OH2            22.9558865826       11.9069206308      -43.1554767678  TIP3      8340            0.0000000000
     49935      8540  TIP3      H1             23.4528900190       12.7194055139      -43.3603900491  TIP3      8340            0.0000000000
     49936      8540  TIP3      H2             22.0798068448       12.1462693853      -43.4835311603  TIP3      8340            0.0000000000
     49937      8541  TIP3      OH2            18.7834792853        6.7107349433      -48.5583282433  TIP3      8341            0.0000000000
     49938      8541  TIP3      H1             19.3211418615        7.4179990313      -48.1638223391  TIP3      8341            0.0000000000
     49939      8541  TIP3      H2             17.8764939988        7.0296376517      -48.3426008712  TIP3      8341            0.0000000000
     49940      8542  TIP3      OH2            24.3767000940        9.5832128548      -43.6361374970  TIP3      8342            0.0000000000
     49941      8542  TIP3      H1             24.0535942323       10.5048547859      -43.5645312104  TIP3      8342            0.0000000000
     49942      8542  TIP3      H2             23.6529376163        9.0884982905      -43.2035995104  TIP3      8342            0.0000000000
     49943      8543  TIP3      OH2            24.8275644050       13.7648898797      -37.2345427242  TIP3      8343            0.0000000000
     49944      8543  TIP3      H1             25.2848853868       14.5713236861      -37.5176559035  TIP3      8343            0.0000000000
     49945      8543  TIP3      H2             25.4357459883       13.4216535486      -36.5561568922  TIP3      8343            0.0000000000
     49946      8544  TIP3      OH2            23.0553305976       14.5643628516      -44.0664100735  TIP3      8344            0.0000000000
     49947      8544  TIP3      H1             22.0878515737       14.7019560141      -43.9611322758  TIP3      8344            0.0000000000
     49948      8544  TIP3      H2             23.4165982678       15.4140968714      -43.7547842783  TIP3      8344            0.0000000000
     49949      8545  TIP3      OH2            28.2429309854        9.6411431160      -37.6538980085  TIP3      8345            0.0000000000
     49950      8545  TIP3      H1             28.0724751606        9.6765393452      -36.6841392411  TIP3      8345            0.0000000000
     49951      8545  TIP3      H2             29.0967154813        9.1707794535      -37.7390339685  TIP3      8345            0.0000000000
     49952      8546  TIP3      OH2            30.5984003811       10.8030942962      -48.4271080235  TIP3      8346            0.0000000000
     49953      8546  TIP3      H1             30.9476523931       10.3068814917      -47.6681864278  TIP3      8346            0.0000000000
     49954      8546  TIP3      H2             29.6568912602       10.6092214396      -48.3477226774  TIP3      8346            0.0000000000
     49955      8547  TIP3      OH2            31.1612729164       14.3323194482      -35.1335708588  TIP3      8347            0.0000000000
     49956      8547  TIP3      H1             30.4649569741       13.8499140396      -35.6112440107  TIP3      8347            0.0000000000
     49957      8547  TIP3      H2             31.3449613774       15.0419840817      -35.7863273785  TIP3      8347            0.0000000000
     49958      8548  TIP3      OH2            35.1823672121       15.2361492201      -48.2915733174  TIP3      8348            0.0000000000
     49959      8548  TIP3      H1             35.8495536579       15.9113146399      -48.4742613175  TIP3      8348            0.0000000000
     49960      8548  TIP3      H2             34.4382855108       15.8113573672      -47.9764273203  TIP3      8348            0.0000000000
     49961      8549  TIP3      OH2            19.2249767391        1.5958206867      -35.7325910655  TIP3      8349            0.0000000000
     49962      8549  TIP3      H1             18.3187666285        1.9500945742      -35.7526630790  TIP3      8349            0.0000000000
     49963      8549  TIP3      H2             19.1113527329        0.7488244206      -35.2707154602  TIP3      8349            0.0000000000
     49964      8550  TIP3      OH2            31.4682941983        9.4829661301      -46.2743528817  TIP3      8350            0.0000000000
     49965      8550  TIP3      H1             31.2297101385        8.6684853136      -45.7921487202  TIP3      8350            0.0000000000
     49966      8550  TIP3      H2             32.4212903853        9.5168088047      -46.1054291176  TIP3      8350            0.0000000000
     49967      8551  TIP3      OH2            18.8527036964       13.4080066723      -37.3113870265  TIP3      8351            0.0000000000
     49968      8551  TIP3      H1             19.1322235672       12.4814842036      -37.3087181535  TIP3      8351            0.0000000000
     49969      8551  TIP3      H2             19.1144924924       13.6584192321      -36.4196022635  TIP3      8351            0.0000000000
     49970      8552  TIP3      OH2            23.5928127971       11.4557619975      -47.5827937007  TIP3      8352            0.0000000000
     49971      8552  TIP3      H1             23.8494670634       10.9174123225      -46.8276567880  TIP3      8352            0.0000000000
     49972      8552  TIP3      H2             23.6467168105       12.3756499178      -47.2505264135  TIP3      8352            0.0000000000
     49973      8553  TIP3      OH2            20.0950292886        8.6688822758      -47.1168845667  TIP3      8353            0.0000000000
     49974      8553  TIP3      H1             19.4086736204        9.0814615764      -46.5586620067  TIP3      8353            0.0000000000
     49975      8553  TIP3      H2             20.6319677795        9.4476186793      -47.3566004985  TIP3      8353            0.0000000000
     49976      8554  TIP3      OH2            27.9380771949        1.3919706124      -36.7882312348  TIP3      8354            0.0000000000
     49977      8554  TIP3      H1             28.6688004341        1.4472516499      -36.1567092223  TIP3      8354            0.0000000000
     49978      8554  TIP3      H2             27.5707799584        0.5103185385      -36.5742767460  TIP3      8354            0.0000000000
     49979      8555  TIP3      OH2            28.6777158404        0.9398279377      -45.6409809284  TIP3      8355            0.0000000000
     49980      8555  TIP3      H1             28.9267941645        1.3911781416      -46.4782638473  TIP3      8355            0.0000000000
     49981      8555  TIP3      H2             29.2892803115        1.3811161667      -45.0444987498  TIP3      8355            0.0000000000
     49982      8556  TIP3      OH2            26.3970884513       13.1026293858      -46.8949086046  TIP3      8356            0.0000000000
     49983      8556  TIP3      H1             25.5723110982       13.6078291497      -46.7912806272  TIP3      8356            0.0000000000
     49984      8556  TIP3      H2             26.9129442793       13.6558309815      -47.4904106060  TIP3      8356            0.0000000000
     49985      8557  TIP3      OH2            25.9214959725        2.7199567204      -44.8783636350  TIP3      8357            0.0000000000
     49986      8557  TIP3      H1             26.7241223155        3.2800804814      -44.8567189223  TIP3      8357            0.0000000000
     49987      8557  TIP3      H2             25.7121841901        2.5367868596      -43.9496805601  TIP3      8357            0.0000000000
     49988      8558  TIP3      OH2            26.5124739280        3.7574289888      -35.7292992550  TIP3      8358            0.0000000000
     49989      8558  TIP3      H1             26.5366371269        4.2421913538      -34.8711502225  TIP3      8358            0.0000000000
     49990      8558  TIP3      H2             27.1150343118        3.0098086085      -35.5879005471  TIP3      8358            0.0000000000
     49991      8559  TIP3      OH2            26.7840323501       -0.2570667492      -43.9873750700  TIP3      8359            0.0000000000
     49992      8559  TIP3      H1             26.4572399970        0.4067780732      -43.3574246789  TIP3      8359            0.0000000000
     49993      8559  TIP3      H2             27.4846563782        0.2812968992      -44.4363180128  TIP3      8359            0.0000000000
     49994      8560  TIP3      OH2            23.7605793814       14.1554249656      -46.8105095218  TIP3      8360            0.0000000000
     49995      8560  TIP3      H1             23.9373073371       14.9698354829      -47.3352775662  TIP3      8360            0.0000000000
     49996      8560  TIP3      H2             23.5017807536       14.5104786839      -45.9380841590  TIP3      8360            0.0000000000
     49997      8561  TIP3      OH2            22.4400985628        0.8892269634      -47.2316566076  TIP3      8361            0.0000000000
     49998      8561  TIP3      H1             22.3958777085        1.7760340895      -46.8361876103  TIP3      8361            0.0000000000
     49999      8561  TIP3      H2             23.3411883433        0.6169581716      -46.9785584655  TIP3      8361            0.0000000000
     50000      8562  TIP3      OH2            32.6501808126        1.5861000034      -34.8402397008  TIP3      8362            0.0000000000
     50001      8562  TIP3      H1             31.7252225814        1.9076988515      -34.9666050142  TIP3      8362            0.0000000000
     50002      8562  TIP3      H2             32.9615463328        1.5695540357      -35.7583520385  TIP3      8362            0.0000000000
     50003      8563  TIP3      OH2            31.2441395795        5.3879848996      -40.7782849733  TIP3      8363            0.0000000000
     50004      8563  TIP3      H1             30.4679956486        4.9112759901      -41.1203761079  TIP3      8363            0.0000000000
     50005      8563  TIP3      H2             31.7705121730        4.6893809204      -40.3209029765  TIP3      8363            0.0000000000
     50006      8564  TIP3      OH2            20.7179779850       11.2492832872      -48.1102406773  TIP3      8364            0.0000000000
     50007      8564  TIP3      H1             21.3483909863       11.9488765493      -47.9098826230  TIP3      8364            0.0000000000
     50008      8564  TIP3      H2             21.1317481023       10.8836983578      -48.9226274084  TIP3      8364            0.0000000000
     50009      8565  TIP3      OH2            19.0506594609        3.9804702526      -49.0035124314  TIP3      8365            0.0000000000
     50010      8565  TIP3      H1             19.0340690804        4.9456421797      -48.8485273421  TIP3      8365            0.0000000000
     50011      8565  TIP3      H2             18.1824178732        3.7802238871      -49.3836653881  TIP3      8365            0.0000000000
     50012      8566  TIP3      OH2            32.3346769867       14.6366088370      -39.1509634171  TIP3      8366            0.0000000000
     50013      8566  TIP3      H1             32.2495384783       15.3178487318      -39.8477857790  TIP3      8366            0.0000000000
     50014      8566  TIP3      H2             33.2977918512       14.6834544178      -38.9790523591  TIP3      8366            0.0000000000
     50015      8567  TIP3      OH2            19.8496462566       -1.2332828147      -40.3403253970  TIP3      8367            0.0000000000
     50016      8567  TIP3      H1             19.6298482700       -1.2374795757      -41.2988476948  TIP3      8367            0.0000000000
     50017      8567  TIP3      H2             19.4297795718       -2.0887965330      -40.0776382751  TIP3      8367            0.0000000000
     50018      8568  TIP3      OH2            18.7859308547       12.6773970008      -44.1997557607  TIP3      8368            0.0000000000
     50019      8568  TIP3      H1             17.9282325316       13.1234942410      -44.2403881329  TIP3      8368            0.0000000000
     50020      8568  TIP3      H2             19.2705558531       13.1400989927      -44.8910053318  TIP3      8368            0.0000000000
     50021      8569  TIP3      OH2            17.9829479385       15.3280222943      -32.9161550275  TIP3      8369            0.0000000000
     50022      8569  TIP3      H1             18.5954471880       15.1260563300      -32.1800179766  TIP3      8369            0.0000000000
     50023      8569  TIP3      H2             17.5958349459       14.4529323034      -33.0979166493  TIP3      8369            0.0000000000
     50024      8570  TIP3      OH2            22.6746036278       14.2492131141      -31.3074712130  TIP3      8370            0.0000000000
     50025      8570  TIP3      H1             23.4255569478       13.7442135489      -30.9763826975  TIP3      8370            0.0000000000
     50026      8570  TIP3      H2             22.6426999711       13.9694955530      -32.2438498973  TIP3      8370            0.0000000000
     50027      8571  TIP3      OH2            26.7416494963       13.7076618095      -49.9589348123  TIP3      8371            0.0000000000
     50028      8571  TIP3      H1             26.1069742034       13.0559290251      -49.6403317606  TIP3      8371            0.0000000000
     50029      8571  TIP3      H2             27.5248345423       13.1669228397      -50.1138550423  TIP3      8371            0.0000000000
     50030      8572  TIP3      OH2            29.1755728093       12.6309468673      -32.5610905202  TIP3      8372            0.0000000000
     50031      8572  TIP3      H1             28.8581555610       11.7457499875      -32.2815047172  TIP3      8372            0.0000000000
     50032      8572  TIP3      H2             29.9420844984       12.7548978459      -31.9655204205  TIP3      8372            0.0000000000
     50033      8573  TIP3      OH2            30.9663859170       13.3936763398      -49.3053176586  TIP3      8373            0.0000000000
     50034      8573  TIP3      H1             31.5229712566       12.6683810627      -48.9770450655  TIP3      8373            0.0000000000
     50035      8573  TIP3      H2             31.6089572775       13.8397991931      -49.9299915649  TIP3      8373            0.0000000000
     50036      8574  TIP3      OH2            17.8969688784        9.0925233250      -31.9178956794  TIP3      8374            0.0000000000
     50037      8574  TIP3      H1             18.0806422004        8.1903060180      -32.2475589000  TIP3      8374            0.0000000000
     50038      8574  TIP3      H2             17.1604296793        9.3552505321      -32.4953163538  TIP3      8374            0.0000000000
     50039      8575  TIP3      OH2            22.3144387995        9.3795627676      -49.8257855432  TIP3      8375            0.0000000000
     50040      8575  TIP3      H1             22.4135050345        8.6264227940      -49.2360609485  TIP3      8375            0.0000000000
     50041      8575  TIP3      H2             23.0124423952        9.2926507480      -50.4835753884  TIP3      8375            0.0000000000
     50042      8576  TIP3      OH2            24.6205073849        9.0959696964      -32.5237998081  TIP3      8376            0.0000000000
     50043      8576  TIP3      H1             24.2584329791        9.4092077550      -33.3785413313  TIP3      8376            0.0000000000
     50044      8576  TIP3      H2             24.6717581424        8.1169280511      -32.6348805948  TIP3      8376            0.0000000000
     50045      8577  TIP3      OH2            30.2859529000        8.9552293413      -35.2085968888  TIP3      8377            0.0000000000
     50046      8577  TIP3      H1             31.1034619202        9.5105330452      -35.1896828135  TIP3      8377            0.0000000000
     50047      8577  TIP3      H2             29.6277374986        9.6510779334      -35.0760486793  TIP3      8377            0.0000000000
     50048      8578  TIP3      OH2            18.7141623161        6.2970434943      -32.4846804574  TIP3      8378            0.0000000000
     50049      8578  TIP3      H1             19.2492036588        5.5074962604      -32.6438572718  TIP3      8378            0.0000000000
     50050      8578  TIP3      H2             18.5872123024        6.3162196739      -31.5303999456  TIP3      8378            0.0000000000
     50051      8579  TIP3      OH2            23.4241265571        7.4443008356      -47.4978224519  TIP3      8379            0.0000000000
     50052      8579  TIP3      H1             22.9559910981        6.9453340608      -46.8070769576  TIP3      8379            0.0000000000
     50053      8579  TIP3      H2             23.7781503701        6.7273898496      -48.0686061962  TIP3      8379            0.0000000000
     50054      8580  TIP3      OH2            22.7659196447        5.2874119342      -35.1791525283  TIP3      8380            0.0000000000
     50055      8580  TIP3      H1             22.1271973228        5.9710151173      -34.9166696916  TIP3      8380            0.0000000000
     50056      8580  TIP3      H2             23.0690547066        5.6808034352      -36.0072318290  TIP3      8380            0.0000000000
     50057      8581  TIP3      OH2            24.6283472400        5.6737959019      -49.1628847474  TIP3      8381            0.0000000000
     50058      8581  TIP3      H1             24.3944271262        5.5495666764      -50.0998696908  TIP3      8381            0.0000000000
     50059      8581  TIP3      H2             25.6020571111        5.7536290809      -49.1413314371  TIP3      8381            0.0000000000
     50060      8582  TIP3      OH2            27.7995085274        7.8306138153      -31.8799353291  TIP3      8382            0.0000000000
     50061      8582  TIP3      H1             28.7618156815        7.8251844322      -31.9410346508  TIP3      8382            0.0000000000
     50062      8582  TIP3      H2             27.6166393830        7.0710458178      -31.3045527823  TIP3      8382            0.0000000000
     50063      8583  TIP3      OH2            33.6352708864        7.7397474749       50.2262845270  TIP3      8383            0.0000000000
     50064      8583  TIP3      H1             33.6927990852        7.5071905828       49.3046179833  TIP3      8383            0.0000000000
     50065      8583  TIP3      H2             33.8566406322        8.7025573425       50.1252248589  TIP3      8383            0.0000000000
     50066      8584  TIP3      OH2            23.1271136402        2.6681477835      -34.1369490316  TIP3      8384            0.0000000000
     50067      8584  TIP3      H1             23.2392682179        1.9489633948      -34.7860784360  TIP3      8384            0.0000000000
     50068      8584  TIP3      H2             23.0708029528        3.4790190600      -34.6858128543  TIP3      8384            0.0000000000
     50069      8585  TIP3      OH2            23.5460713833        1.0333337064      -36.6042165150  TIP3      8385            0.0000000000
     50070      8585  TIP3      H1             24.0377449944        1.5032154418      -37.3036567377  TIP3      8385            0.0000000000
     50071      8585  TIP3      H2             22.6263117809        0.9505909644      -36.9517232896  TIP3      8385            0.0000000000
     50072      8586  TIP3      OH2            25.1608319641        6.5740920453      -36.2647409700  TIP3      8386            0.0000000000
     50073      8586  TIP3      H1             25.7392360373        6.2778974911      -36.9445597637  TIP3      8386            0.0000000000
     50074      8586  TIP3      H2             24.6477661433        7.3327073251      -36.6498819191  TIP3      8386            0.0000000000
     50075      8587  TIP3      OH2            29.4641534442        4.2700419833      -31.3484045099  TIP3      8387            0.0000000000
     50076      8587  TIP3      H1             29.7136753287        3.3433864068      -31.4647335629  TIP3      8387            0.0000000000
     50077      8587  TIP3      H2             30.3264332078        4.7193664885      -31.3353137478  TIP3      8387            0.0000000000
     50078      8588  TIP3      OH2            30.7908750629        7.0756698053      -33.2138207202  TIP3      8388            0.0000000000
     50079      8588  TIP3      H1             30.5596895177        7.8083337220      -33.8136654156  TIP3      8388            0.0000000000
     50080      8588  TIP3      H2             31.7538163373        7.0342295016      -33.3951143854  TIP3      8388            0.0000000000
     50081      8589  TIP3      OH2            21.5968976639        3.8963747648      -32.2069147726  TIP3      8389            0.0000000000
     50082      8589  TIP3      H1             20.8175783367        3.3292689167      -32.3755895725  TIP3      8389            0.0000000000
     50083      8589  TIP3      H2             22.2422378956        3.5246969002      -32.8340392329  TIP3      8389            0.0000000000
     50084      8590  TIP3      OH2            24.3201130935       -1.5385254996      -36.1863990895  TIP3      8390            0.0000000000
     50085      8590  TIP3      H1             24.1333280718       -0.5755860336      -36.2652471748  TIP3      8390            0.0000000000
     50086      8590  TIP3      H2             23.5684913909       -1.9014252780      -36.6879137124  TIP3      8390            0.0000000000
     50087      8591  TIP3      OH2            25.5815229893        2.7869286907      -32.5398629247  TIP3      8391            0.0000000000
     50088      8591  TIP3      H1             25.2632013113        2.5560171056      -31.6464571759  TIP3      8391            0.0000000000
     50089      8591  TIP3      H2             24.8047980659        2.5928281887      -33.0906900056  TIP3      8391            0.0000000000
     50090      8592  TIP3      OH2            28.3073785098        1.9415478418      -33.4717492395  TIP3      8392            0.0000000000
     50091      8592  TIP3      H1             27.3444612194        1.9953383077      -33.3550011704  TIP3      8392            0.0000000000
     50092      8592  TIP3      H2             28.5771049047        1.3069004078      -32.7820081487  TIP3      8392            0.0000000000
     50093      8593  TIP3      OH2            29.8868716111        0.5620327419      -31.5705041345  TIP3      8393            0.0000000000
     50094      8593  TIP3      H1             29.8446814803       -0.4162549870      -31.5377977741  TIP3      8393            0.0000000000
     50095      8593  TIP3      H2             29.6475396287        0.8543297754      -30.6679944382  TIP3      8393            0.0000000000
     50096      8594  TIP3      OH2            19.6629867906        1.8182475955      -32.4397643460  TIP3      8394            0.0000000000
     50097      8594  TIP3      H1             19.9076077642        1.0908183236      -33.0359334029  TIP3      8394            0.0000000000
     50098      8594  TIP3      H2             19.5727871186        1.3733296573      -31.5767542374  TIP3      8394            0.0000000000
     50099      8595  TIP3      OH2            24.5325053201       -2.1385396263      -33.4813527578  TIP3      8395            0.0000000000
     50100      8595  TIP3      H1             25.2007636201       -2.8535663813      -33.4910924742  TIP3      8395            0.0000000000
     50101      8595  TIP3      H2             24.4199877759       -2.0023488504      -34.4423732457  TIP3      8395            0.0000000000
     50102      8596  TIP3      OH2            24.8940613222       -0.5260785974      -31.3660791435  TIP3      8396            0.0000000000
     50103      8596  TIP3      H1             24.7220909177       -1.0321919433      -32.1990515130  TIP3      8396            0.0000000000
     50104      8596  TIP3      H2             24.2962165702        0.2388180151      -31.4687991205  TIP3      8396            0.0000000000
     50105      8597  TIP3      OH2            24.3712809602       16.3899790196      -48.2029449289  TIP3      8397            0.0000000000
     50106      8597  TIP3      H1             25.3425029824       16.4885582722      -48.1293980469  TIP3      8397            0.0000000000
     50107      8597  TIP3      H2             24.1674727606       17.0099401167      -48.9129287232  TIP3      8397            0.0000000000
     50108      8598  TIP3      OH2            18.0085776139       10.9552357888      -48.6361906156  TIP3      8398            0.0000000000
     50109      8598  TIP3      H1             18.9744162543       11.0579718511      -48.4960219690  TIP3      8398            0.0000000000
     50110      8598  TIP3      H2             17.9941207264       10.3562030240      -49.3966218334  TIP3      8398            0.0000000000
     50111      8599  TIP3      OH2            16.6966225141       16.3382208781      -43.7520778953  TIP3      8399            0.0000000000
     50112      8599  TIP3      H1             15.9777977845       15.8579482337      -44.2198779906  TIP3      8399            0.0000000000
     50113      8599  TIP3      H2             16.9698334492       15.6896099703      -43.0821825308  TIP3      8399            0.0000000000
     50114      8600  TIP3      OH2            17.5211552152       14.4853707868      -41.8792241644  TIP3      8400            0.0000000000
     50115      8600  TIP3      H1             17.1680113151       13.6057004718      -41.6832478757  TIP3      8400            0.0000000000
     50116      8600  TIP3      H2             17.7465594228       14.8137824131      -40.9940101807  TIP3      8400            0.0000000000
     50117      8601  TIP3      OH2            35.0610523178       15.2644886226      -38.9554449642  TIP3      8401            0.0000000000
     50118      8601  TIP3      H1             35.0706838272       15.4308317143      -37.9969512045  TIP3      8401            0.0000000000
     50119      8601  TIP3      H2             35.7650850234       15.8519644810      -39.2511889916  TIP3      8401            0.0000000000
     50120      8602  TIP3      OH2            34.6214457002       14.8755722268      -35.9995251528  TIP3      8402            0.0000000000
     50121      8602  TIP3      H1             34.1597332935       14.1055086448      -36.3900526123  TIP3      8402            0.0000000000
     50122      8602  TIP3      H2             35.1320091810       14.4250860697      -35.3065237690  TIP3      8402            0.0000000000
     50123      8603  TIP3      OH2            33.0787984341       10.5927880026      -31.3343096004  TIP3      8403            0.0000000000
     50124      8603  TIP3      H1             32.1706663710       10.5678874958      -30.9717485493  TIP3      8403            0.0000000000
     50125      8603  TIP3      H2             33.4511403020       11.3971168182      -30.9192839999  TIP3      8403            0.0000000000
     50126      8604  TIP3      OH2            34.3407901428        8.9416907871      -45.8680276654  TIP3      8404            0.0000000000
     50127      8604  TIP3      H1             35.2247924744        9.3124825318      -45.7176669847  TIP3      8404            0.0000000000
     50128      8604  TIP3      H2             34.3716118164        8.1959290265      -45.2317572862  TIP3      8404            0.0000000000
     50129      8605  TIP3      OH2            34.7628046546        6.9972764989      -44.0276638050  TIP3      8405            0.0000000000
     50130      8605  TIP3      H1             34.0129653476        6.4912094313      -43.6429231232  TIP3      8405            0.0000000000
     50131      8605  TIP3      H2             35.3544897080        7.1337463652      -43.2609651457  TIP3      8405            0.0000000000
     50132      8606  TIP3      OH2            34.5434092729        9.6975722077      -39.0251531468  TIP3      8406            0.0000000000
     50133      8606  TIP3      H1             35.3622620382        9.3201738551      -39.4019871081  TIP3      8406            0.0000000000
     50134      8606  TIP3      H2             34.6621260320       10.6514003907      -39.2120393272  TIP3      8406            0.0000000000
     50135      8607  TIP3      OH2            33.0642153189       12.5990614115      -36.7662096143  TIP3      8407            0.0000000000
     50136      8607  TIP3      H1             32.3779311256       12.9438689491      -36.1773774980  TIP3      8407            0.0000000000
     50137      8607  TIP3      H2             32.5201643410       12.1992204511      -37.4756730438  TIP3      8407            0.0000000000
     50138      8608  TIP3      OH2            35.0780152164        6.8646176520      -47.6284073924  TIP3      8408            0.0000000000
     50139      8608  TIP3      H1             34.4902688198        7.1742464478      -48.3496655453  TIP3      8408            0.0000000000
     50140      8608  TIP3      H2             34.9701308132        7.5727341432      -46.9659389496  TIP3      8408            0.0000000000
     50141      8609  TIP3      OH2            33.3860346729        4.1304404350      -48.7723266009  TIP3      8409            0.0000000000
     50142      8609  TIP3      H1             33.5444203756        4.7506965625      -49.5084589098  TIP3      8409            0.0000000000
     50143      8609  TIP3      H2             33.4313730616        3.2813446779      -49.2512447577  TIP3      8409            0.0000000000
     50144      8610  TIP3      OH2            32.5757934442        5.4683611981      -43.4316085983  TIP3      8410            0.0000000000
     50145      8610  TIP3      H1             32.4231940526        4.5141226017      -43.4829790313  TIP3      8410            0.0000000000
     50146      8610  TIP3      H2             32.2451388035        5.6885892925      -42.5447733980  TIP3      8410            0.0000000000
     50147      8611  TIP3      OH2            17.5704689951        7.6218662255      -39.3987451842  TIP3      8411            0.0000000000
     50148      8611  TIP3      H1             17.7566451225        7.4872915085      -40.3560747955  TIP3      8411            0.0000000000
     50149      8611  TIP3      H2             18.4436267146        7.3673371954      -39.0351836961  TIP3      8411            0.0000000000
     50150      8612  TIP3      OH2            33.4144789372        7.4355046077      -33.7325038771  TIP3      8412            0.0000000000
     50151      8612  TIP3      H1             34.0383308063        6.6846629588      -33.6302821391  TIP3      8412            0.0000000000
     50152      8612  TIP3      H2             34.0179024026        8.2082967551      -33.7663220369  TIP3      8412            0.0000000000
     50153      8613  TIP3      OH2            34.9632886724        5.3200559498      -33.1162665664  TIP3      8413            0.0000000000
     50154      8613  TIP3      H1             34.0794235897        4.9261096153      -33.2711280325  TIP3      8413            0.0000000000
     50155      8613  TIP3      H2             35.5269642275        4.5272208646      -33.1825818207  TIP3      8413            0.0000000000
     50156      8614  TIP3      OH2            32.6612244352        1.3954917982      -49.9528351374  TIP3      8414            0.0000000000
     50157      8614  TIP3      H1             33.2460620143        0.9928143454      -49.2869613470  TIP3      8414            0.0000000000
     50158      8614  TIP3      H2             31.7756962954        1.0608931129      -49.7500244827  TIP3      8414            0.0000000000
     50159      8615  TIP3      OH2            32.2306487333        3.0438331658      -45.0058374689  TIP3      8415            0.0000000000
     50160      8615  TIP3      H1             32.5361499269        2.1206953599      -44.8603325014  TIP3      8415            0.0000000000
     50161      8615  TIP3      H2             33.0309879427        3.4479791553      -45.3775253521  TIP3      8415            0.0000000000
     50162      8616  TIP3      OH2            32.8806147943        3.5917230204      -39.5460887996  TIP3      8416            0.0000000000
     50163      8616  TIP3      H1             33.8383942226        3.8297693982      -39.5657834159  TIP3      8416            0.0000000000
     50164      8616  TIP3      H2             32.6921888824        3.7428059547      -38.6066016803  TIP3      8416            0.0000000000
     50165      8617  TIP3      OH2            32.9526309234        4.3118958303      -36.7773378350  TIP3      8417            0.0000000000
     50166      8617  TIP3      H1             32.0787708502        4.5988959126      -36.4405051988  TIP3      8417            0.0000000000
     50167      8617  TIP3      H2             33.3776524535        5.1748266265      -36.9899367332  TIP3      8417            0.0000000000
     50168      8618  TIP3      OH2            17.1981525254        2.8611771434      -33.2310490705  TIP3      8418            0.0000000000
     50169      8618  TIP3      H1             18.1337966741        2.6418092748      -33.0439733499  TIP3      8418            0.0000000000
     50170      8618  TIP3      H2             16.7334463725        2.0385220528      -32.9703081714  TIP3      8418            0.0000000000
     50171      8619  TIP3      OH2            35.2364117010       -1.6188928254      -31.4255180775  TIP3      8419            0.0000000000
     50172      8619  TIP3      H1             35.5912544764       -2.2800449846      -32.0477884075  TIP3      8419            0.0000000000
     50173      8619  TIP3      H2             35.3089078470       -0.8052445109      -31.9633252479  TIP3      8419            0.0000000000
     50174      8620  TIP3      OH2            32.9217665995        0.3316169388      -44.9542599814  TIP3      8420            0.0000000000
     50175      8620  TIP3      H1             33.1030423655       -0.0825755540      -44.0837983336  TIP3      8420            0.0000000000
     50176      8620  TIP3      H2             32.2833241673       -0.2791547736      -45.3856017186  TIP3      8420            0.0000000000
     50177      8621  TIP3      OH2            18.3958898720        1.1328158372      -40.4041368783  TIP3      8421            0.0000000000
     50178      8621  TIP3      H1             18.8436950289        0.3113522691      -40.1195710371  TIP3      8421            0.0000000000
     50179      8621  TIP3      H2             18.9193520928        1.8314897766      -39.9935307509  TIP3      8421            0.0000000000
     50180      8622  TIP3      OH2            16.6832641412        4.1648109335      -39.3453703897  TIP3      8422            0.0000000000
     50181      8622  TIP3      H1             17.2415314366        3.9062306955      -40.1078367515  TIP3      8422            0.0000000000
     50182      8622  TIP3      H2             17.1671134012        4.9621912395      -39.0750201563  TIP3      8422            0.0000000000
     50183      8623  TIP3      OH2            34.7473660245        0.4742537949      -33.0669346928  TIP3      8423            0.0000000000
     50184      8623  TIP3      H1             33.8129527741        0.7591582328      -33.1204496319  TIP3      8423            0.0000000000
     50185      8623  TIP3      H2             34.7532945494       -0.0664870518      -33.8721249009  TIP3      8423            0.0000000000
     50186      8624  TIP3      OH2            34.7623716320        0.3796543584      -48.3528469266  TIP3      8424            0.0000000000
     50187      8624  TIP3      H1             35.1684980609       -0.2950025090      -48.9156974722  TIP3      8424            0.0000000000
     50188      8624  TIP3      H2             35.4376495927        1.0753612758      -48.3883815054  TIP3      8424            0.0000000000
     50189      8625  TIP3      OH2            17.0420021802        0.4200031986      -45.2758565027  TIP3      8425            0.0000000000
     50190      8625  TIP3      H1             16.0983593660        0.5938698425      -45.4174776072  TIP3      8425            0.0000000000
     50191      8625  TIP3      H2             17.4523985097        0.9095199128      -46.0093370248  TIP3      8425            0.0000000000
     50192      8626  TIP3      OH2            31.7858924897       15.3578213426      -43.3414602022  TIP3      8426            0.0000000000
     50193      8626  TIP3      H1             32.4632728999       15.0507451953      -43.9658948192  TIP3      8426            0.0000000000
     50194      8626  TIP3      H2             32.2944307106       15.8534823434      -42.6826799602  TIP3      8426            0.0000000000
     50195      8627  TIP3      OH2            17.0033270040       -0.9206065978      -36.9702985139  TIP3      8427            0.0000000000
     50196      8627  TIP3      H1             16.3240785611       -1.1408660351      -36.3059772033  TIP3      8427            0.0000000000
     50197      8627  TIP3      H2             16.5316415432       -0.2652118300      -37.5241264858  TIP3      8427            0.0000000000
     50198      8628  TIP3      OH2            19.2392909758       12.2634805628      -32.8182766329  TIP3      8428            0.0000000000
     50199      8628  TIP3      H1             18.3994430978       12.4454541493      -33.2713184358  TIP3      8428            0.0000000000
     50200      8628  TIP3      H2             18.9637080490       12.1898048177      -31.9029013962  TIP3      8428            0.0000000000
     50201      8629  TIP3      OH2            22.1341395513       13.3523943492      -36.5114210102  TIP3      8429            0.0000000000
     50202      8629  TIP3      H1             21.8131302012       14.1965238808      -36.8270470011  TIP3      8429            0.0000000000
     50203      8629  TIP3      H2             23.0535173534       13.3490925646      -36.8479849812  TIP3      8429            0.0000000000
     50204      8630  TIP3      OH2            26.4508333477       14.6952126932      -33.6410907545  TIP3      8430            0.0000000000
     50205      8630  TIP3      H1             26.5851735088       14.3398650499      -32.7320722574  TIP3      8430            0.0000000000
     50206      8630  TIP3      H2             27.3543459136       14.9974091567      -33.8785453453  TIP3      8430            0.0000000000
     50207      8631  TIP3      OH2            28.7386438775       15.9606366656      -34.3266135820  TIP3      8431            0.0000000000
     50208      8631  TIP3      H1             29.4697623139       15.3776799736      -34.5635053972  TIP3      8431            0.0000000000
     50209      8631  TIP3      H2             29.1130162762       16.4011146327      -33.5320610128  TIP3      8431            0.0000000000
     50210      8632  TIP3      OH2            33.7795211085       -1.4244295609      -35.2208572202  TIP3      8432            0.0000000000
     50211      8632  TIP3      H1             32.9424373506       -1.1245149977      -35.6255816663  TIP3      8432            0.0000000000
     50212      8632  TIP3      H2             33.9243454536       -2.2519658316      -35.7304811107  TIP3      8432            0.0000000000
     50213      8633  TIP3      OH2            19.5553139181       16.5069416803      -36.5484978616  TIP3      8433            0.0000000000
     50214      8633  TIP3      H1             18.8231132948       17.0082544131      -36.9429035477  TIP3      8433            0.0000000000
     50215      8633  TIP3      H2             19.2464717573       16.3174622586      -35.6507180005  TIP3      8433            0.0000000000
     50216      8634  TIP3      OH2            22.0220852426       16.0849462963      -37.4744742815  TIP3      8434            0.0000000000
     50217      8634  TIP3      H1             21.1297268556       16.2307437891      -37.0785873079  TIP3      8434            0.0000000000
     50218      8634  TIP3      H2             21.9680971500       16.6757511552      -38.2482700894  TIP3      8434            0.0000000000
     50219      8635  TIP3      OH2            26.7304532537       15.9954929256      -38.3020334766  TIP3      8435            0.0000000000
     50220      8635  TIP3      H1             26.2627729348       16.5419582834      -38.9510056286  TIP3      8435            0.0000000000
     50221      8635  TIP3      H2             26.8607060092       16.6295316722      -37.5666713496  TIP3      8435            0.0000000000
     50222      8636  TIP3      OH2            29.0164219425       14.8000801342      -37.2728761906  TIP3      8436            0.0000000000
     50223      8636  TIP3      H1             28.1642301029       15.0847879432      -37.6439515961  TIP3      8436            0.0000000000
     50224      8636  TIP3      H2             29.5041534913       15.6374352261      -37.3641207778  TIP3      8436            0.0000000000
     50225      8637  TIP3      OH2            31.6041700254       16.3790625776      -37.0514182976  TIP3      8437            0.0000000000
     50226      8637  TIP3      H1             31.5492567280       17.3378533171      -37.2809968952  TIP3      8437            0.0000000000
     50227      8637  TIP3      H2             31.8013576734       16.0066253697      -37.9328724298  TIP3      8437            0.0000000000
     50228      8638  TIP3      OH2            19.0169247280       15.1558237045      -39.6027768272  TIP3      8438            0.0000000000
     50229      8638  TIP3      H1             18.9333799606       14.6951753116      -38.7398336754  TIP3      8438            0.0000000000
     50230      8638  TIP3      H2             19.8301675127       14.7762697429      -39.9911420486  TIP3      8438            0.0000000000
     50231      8639  TIP3      OH2            21.0903897134       13.8665627558      -40.9488749878  TIP3      8439            0.0000000000
     50232      8639  TIP3      H1             20.9277776078       12.9325488820      -40.7158465131  TIP3      8439            0.0000000000
     50233      8639  TIP3      H2             21.9453680933       14.0250553068      -40.4974884923  TIP3      8439            0.0000000000
     50234      8640  TIP3      OH2            23.7047208223       14.3588468809      -40.0638546071  TIP3      8440            0.0000000000
     50235      8640  TIP3      H1             23.8555227947       13.4365032459      -40.3422224804  TIP3      8440            0.0000000000
     50236      8640  TIP3      H2             23.7261862088       14.2672251796      -39.0995212275  TIP3      8440            0.0000000000
     50237      8641  TIP3      OH2            27.1009420600        0.0085864333      -40.9642458458  TIP3      8441            0.0000000000
     50238      8641  TIP3      H1             26.4872766201       -0.6764935929      -40.6439722188  TIP3      8441            0.0000000000
     50239      8641  TIP3      H2             27.7041410759       -0.5236628854      -41.5039615265  TIP3      8441            0.0000000000
     50240      8642  TIP3      OH2            32.2945808414       -1.9728974817      -40.8905145039  TIP3      8442            0.0000000000
     50241      8642  TIP3      H1             32.8897921886       -1.3440389344      -41.3717408883  TIP3      8442            0.0000000000
     50242      8642  TIP3      H2             31.4099916087       -1.6000487435      -41.0968555323  TIP3      8442            0.0000000000
     50243      8643  TIP3      OH2            33.8968011512       -0.6364788003      -42.5550368772  TIP3      8443            0.0000000000
     50244      8643  TIP3      H1             34.5463965801       -1.2323967357      -42.9975236211  TIP3      8443            0.0000000000
     50245      8643  TIP3      H2             34.4392603037        0.1822360714      -42.4581852597  TIP3      8443            0.0000000000
     50246      8644  TIP3      OH2            19.5224687963       -1.3735156100      -43.0895743722  TIP3      8444            0.0000000000
     50247      8644  TIP3      H1             18.7216449930       -1.5644733903      -43.6116979942  TIP3      8444            0.0000000000
     50248      8644  TIP3      H2             19.9681323866       -2.2428382889      -43.1324658516  TIP3      8444            0.0000000000
     50249      8645  TIP3      OH2            18.2709899200       -1.6231915712      -47.4102154283  TIP3      8445            0.0000000000
     50250      8645  TIP3      H1             18.7957969213       -0.9421721221      -47.8756034532  TIP3      8445            0.0000000000
     50251      8645  TIP3      H2             17.7480257914       -1.0648041725      -46.8016724019  TIP3      8445            0.0000000000
     50252      8646  TIP3      OH2            23.9714393006       -1.3707833181      -43.2724234970  TIP3      8446            0.0000000000
     50253      8646  TIP3      H1             24.9047795083       -1.1225169518      -43.3834643620  TIP3      8446            0.0000000000
     50254      8646  TIP3      H2             23.9593801820       -1.6989157417      -42.3720204907  TIP3      8446            0.0000000000
     50255      8647  TIP3      OH2            29.7151651439       -1.4261587323      -41.6801125298  TIP3      8447            0.0000000000
     50256      8647  TIP3      H1             29.6756219171       -1.3191566147      -42.6416486805  TIP3      8447            0.0000000000
     50257      8647  TIP3      H2             29.3017675161       -2.3148953161      -41.5475091382  TIP3      8447            0.0000000000
     50258      8648  TIP3      OH2            30.9949586632       -1.4106907983      -46.0067560847  TIP3      8448            0.0000000000
     50259      8648  TIP3      H1             30.2544743534       -0.8105753020      -46.1716952443  TIP3      8448            0.0000000000
     50260      8648  TIP3      H2             30.5305285805       -2.2518098072      -45.7952549355  TIP3      8448            0.0000000000
     50261      8649  TIP3      OH2            18.2474511396       14.3382720742      -46.4301070040  TIP3      8449            0.0000000000
     50262      8649  TIP3      H1             17.5038571350       14.3199180718      -47.0512773491  TIP3      8449            0.0000000000
     50263      8649  TIP3      H2             18.2061999682       15.2720586339      -46.1638345647  TIP3      8449            0.0000000000
     50264      8650  TIP3      OH2            20.0950290118        0.3178736419      -48.8940655678  TIP3      8450            0.0000000000
     50265      8650  TIP3      H1             20.6210814969       -0.3472009940      -49.3489910283  TIP3      8450            0.0000000000
     50266      8650  TIP3      H2             20.7389842677        0.6549592158      -48.2425650521  TIP3      8450            0.0000000000
     50267      8651  TIP3      OH2            25.1568958446        0.5870683424      -46.4616542506  TIP3      8451            0.0000000000
     50268      8651  TIP3      H1             25.4026131236       -0.0130635338      -45.7391731415  TIP3      8451            0.0000000000
     50269      8651  TIP3      H2             25.2099824963        1.4370513949      -45.9705013603  TIP3      8451            0.0000000000
     50270      8652  TIP3      OH2            27.0687757381       15.6366459721      -48.0144976627  TIP3      8452            0.0000000000
     50271      8652  TIP3      H1             28.0052613421       15.8881690761      -48.1889096068  TIP3      8452            0.0000000000
     50272      8652  TIP3      H2             26.8848414693       15.1349942079      -48.8345652923  TIP3      8452            0.0000000000
     50273      8653  TIP3      OH2            33.8119334867       15.1529505819      -45.3111080612  TIP3      8453            0.0000000000
     50274      8653  TIP3      H1             33.5716211016       14.3633021581      -45.8505632866  TIP3      8453            0.0000000000
     50275      8653  TIP3      H2             33.6701852358       15.8906634202      -45.9334740736  TIP3      8453            0.0000000000
     50276      8654  TIP3      OH2            19.4054884147       -0.8199332254      -33.6196357153  TIP3      8454            0.0000000000
     50277      8654  TIP3      H1             19.0135358663       -1.6277713613      -33.2310179217  TIP3      8454            0.0000000000
     50278      8654  TIP3      H2             20.3174173211       -0.8748361934      -33.2503611467  TIP3      8454            0.0000000000
     50279      8655  TIP3      OH2            21.4035690913       -1.4463405217      -31.9894057099  TIP3      8455            0.0000000000
     50280      8655  TIP3      H1             22.2955122338       -1.7847339624      -32.2078279161  TIP3      8455            0.0000000000
     50281      8655  TIP3      H2             21.0298085052       -2.2547337762      -31.5876034420  TIP3      8455            0.0000000000
     50282      8656  TIP3      OH2            20.3545032494       15.5343154640      -49.0807276336  TIP3      8456            0.0000000000
     50283      8656  TIP3      H1             19.7795518162       15.5417130913      -48.3108531922  TIP3      8456            0.0000000000
     50284      8656  TIP3      H2             20.8392401568       14.6985552846      -49.0598365739  TIP3      8456            0.0000000000
     50285      8657  TIP3      OH2            29.8122361505       -2.1617042981      -31.8471408041  TIP3      8457            0.0000000000
     50286      8657  TIP3      H1             29.9003972499       -2.6335294289      -30.9945721325  TIP3      8457            0.0000000000
     50287      8657  TIP3      H2             30.7272564669       -2.1954403913      -32.1863526735  TIP3      8457            0.0000000000
     50288      8658  TIP3      OH2            33.0165552435       13.8902365093      -33.2111915843  TIP3      8458            0.0000000000
     50289      8658  TIP3      H1             32.2136337554       13.7538915571      -33.7577879414  TIP3      8458            0.0000000000
     50290      8658  TIP3      H2             32.8959946546       14.8361075413      -32.9940698295  TIP3      8458            0.0000000000
     50291      8659  TIP3      OH2            38.5639445679        6.7651423234      -38.0445191658  TIP3      8459            0.0000000000
     50292      8659  TIP3      H1             38.7527135697        5.9865711159      -37.4716239843  TIP3      8459            0.0000000000
     50293      8659  TIP3      H2             39.4304255851        7.2018199214      -38.0473175194  TIP3      8459            0.0000000000
     50294      8660  TIP3      OH2           -40.3912395275       10.5974718937      -39.3016077995  TIP3      8460            0.0000000000
     50295      8660  TIP3      H1            -40.6073952711       10.0593271903      -40.0906949198  TIP3      8460            0.0000000000
     50296      8660  TIP3      H2            -39.5358187910       10.9291189694      -39.5895511103  TIP3      8460            0.0000000000
     50297      8661  TIP3      OH2            36.1978192715        4.6639049897      -44.1921423255  TIP3      8461            0.0000000000
     50298      8661  TIP3      H1             35.8065394037        5.5607649365      -44.2520315760  TIP3      8461            0.0000000000
     50299      8661  TIP3      H2             35.6300186902        4.1646831676      -44.7870626700  TIP3      8461            0.0000000000
     50300      8662  TIP3      OH2            36.9438699165        6.9282620780      -42.0564596613  TIP3      8462            0.0000000000
     50301      8662  TIP3      H1             37.2208760441        6.1124133400      -41.5938333644  TIP3      8462            0.0000000000
     50302      8662  TIP3      H2             37.6640024774        7.0415758061      -42.6967429592  TIP3      8462            0.0000000000
     50303      8663  TIP3      OH2            37.5874449963        4.3755146318      -41.0178411190  TIP3      8463            0.0000000000
     50304      8663  TIP3      H1             38.2845576785        3.8900828387      -40.5369551090  TIP3      8463            0.0000000000
     50305      8663  TIP3      H2             37.7371942812        4.0547208146      -41.9184208098  TIP3      8463            0.0000000000
     50306      8664  TIP3      OH2            39.3747022765        2.2772746071      -39.6950941174  TIP3      8464            0.0000000000
     50307      8664  TIP3      H1             39.7677315809        3.0607940826      -39.2437257359  TIP3      8464            0.0000000000
     50308      8664  TIP3      H2             39.9445830547        2.1525754687      -40.4759952409  TIP3      8464            0.0000000000
     50309      8665  TIP3      OH2            36.9425809457       10.1252592790      -45.8152123896  TIP3      8465            0.0000000000
     50310      8665  TIP3      H1             36.6495562276       10.4381564006      -46.6868997761  TIP3      8465            0.0000000000
     50311      8665  TIP3      H2             37.0225135664       10.9761250833      -45.3346662222  TIP3      8465            0.0000000000
     50312      8666  TIP3      OH2            38.9700549367        7.1794394589      -35.2404180940  TIP3      8466            0.0000000000
     50313      8666  TIP3      H1             39.2141877454        7.9212581462      -34.6524453379  TIP3      8466            0.0000000000
     50314      8666  TIP3      H2             38.1347245748        7.4542163167      -35.6376868063  TIP3      8466            0.0000000000
     50315      8667  TIP3      OH2            36.1745556137        9.3336083887      -36.3495343879  TIP3      8467            0.0000000000
     50316      8667  TIP3      H1             35.7976468728        9.2434085343      -37.2380060683  TIP3      8467            0.0000000000
     50317      8667  TIP3      H2             36.3235541281        8.3860250750      -36.1555736550  TIP3      8467            0.0000000000
     50318      8668  TIP3      OH2            36.0378687974       12.0537388765      -39.5725875543  TIP3      8468            0.0000000000
     50319      8668  TIP3      H1             36.9954640028       11.9269725263      -39.5809936942  TIP3      8468            0.0000000000
     50320      8668  TIP3      H2             35.9247005818       12.8821596345      -39.0868587084  TIP3      8468            0.0000000000
     50321      8669  TIP3      OH2            39.0321094546       14.4581522972      -43.5475545378  TIP3      8469            0.0000000000
     50322      8669  TIP3      H1             39.3128622553       14.4642469717      -42.6126532163  TIP3      8469            0.0000000000
     50323      8669  TIP3      H2             38.0813501727       14.4072012058      -43.5470105622  TIP3      8469            0.0000000000
     50324      8670  TIP3      OH2            38.4838233395       10.6714938423      -35.3974592411  TIP3      8470            0.0000000000
     50325      8670  TIP3      H1             38.7705324667       10.2531145617      -34.5632292421  TIP3      8470            0.0000000000
     50326      8670  TIP3      H2             37.6622066098       10.2225026905      -35.6556205558  TIP3      8470            0.0000000000
     50327      8671  TIP3      OH2            38.9294569681        4.3624651661      -36.4944063480  TIP3      8471            0.0000000000
     50328      8671  TIP3      H1             38.9658319351        4.7007874485      -35.5939244858  TIP3      8471            0.0000000000
     50329      8671  TIP3      H2             38.5216409330        3.4917297687      -36.3724244457  TIP3      8471            0.0000000000
     50330      8672  TIP3      OH2            35.5705301932        1.4302780863      -42.5525967544  TIP3      8472            0.0000000000
     50331      8672  TIP3      H1             36.2658254915        1.4238752075      -41.8517760350  TIP3      8472            0.0000000000
     50332      8672  TIP3      H2             36.0385268247        1.1046927495      -43.3343611738  TIP3      8472            0.0000000000
     50333      8673  TIP3      OH2            36.8309897188        2.1490743038      -47.1750823120  TIP3      8473            0.0000000000
     50334      8673  TIP3      H1             37.3299789834        2.7614657717      -47.7635638713  TIP3      8473            0.0000000000
     50335      8673  TIP3      H2             36.1605295117        2.7932703276      -46.8724235216  TIP3      8473            0.0000000000
     50336      8674  TIP3      OH2            38.5548273339        3.4354262628      -43.5994140759  TIP3      8474            0.0000000000
     50337      8674  TIP3      H1             37.6316139532        3.4341664198      -43.8788734793  TIP3      8474            0.0000000000
     50338      8674  TIP3      H2             38.8843544538        2.5216900157      -43.7100309021  TIP3      8474            0.0000000000
     50339      8675  TIP3      OH2            39.0071925944        9.1823256576      -33.2466459823  TIP3      8475            0.0000000000
     50340      8675  TIP3      H1             39.6243540777        9.3398051679      -32.5504269691  TIP3      8475            0.0000000000
     50341      8675  TIP3      H2             38.2004926005        9.2377224400      -32.6903674212  TIP3      8475            0.0000000000
     50342      8676  TIP3      OH2            39.2059875302        8.4427900914      -40.8343146424  TIP3      8476            0.0000000000
     50343      8676  TIP3      H1             40.0688366723        8.4527362209      -41.2780011996  TIP3      8476            0.0000000000
     50344      8676  TIP3      H2             39.3695419422        7.7513534521      -40.1495609294  TIP3      8476            0.0000000000
     50345      8677  TIP3      OH2            36.3623464586        6.9117581783      -35.2336985598  TIP3      8477            0.0000000000
     50346      8677  TIP3      H1             36.6610592937        6.4186463827      -34.4435041341  TIP3      8477            0.0000000000
     50347      8677  TIP3      H2             35.8310235867        6.2509681603      -35.7156490946  TIP3      8477            0.0000000000
     50348      8678  TIP3      OH2            37.6075825121        6.7144881348      -48.5611416473  TIP3      8478            0.0000000000
     50349      8678  TIP3      H1             38.1528254734        7.4173324031      -48.1581362420  TIP3      8478            0.0000000000
     50350      8678  TIP3      H2             36.6879268786        7.0228803403      -48.3579765555  TIP3      8478            0.0000000000
     50351      8679  TIP3      OH2            38.0692784748        1.5827095069      -35.7187697189  TIP3      8479            0.0000000000
     50352      8679  TIP3      H1             37.1627540121        1.9308173950      -35.7958248323  TIP3      8479            0.0000000000
     50353      8679  TIP3      H2             37.9497041463        0.7312257413      -35.2732566596  TIP3      8479            0.0000000000
     50354      8680  TIP3      OH2            37.7129339913       13.3756234284      -37.2995750255  TIP3      8480            0.0000000000
     50355      8680  TIP3      H1             37.9451350525       12.4338797035      -37.2758253149  TIP3      8480            0.0000000000
     50356      8680  TIP3      H2             37.9799674139       13.6674296271      -36.4140636961  TIP3      8480            0.0000000000
     50357      8681  TIP3      OH2            38.9577271664        8.6696763071      -47.1707867403  TIP3      8481            0.0000000000
     50358      8681  TIP3      H1             38.3130130247        9.0003870035      -46.5057509512  TIP3      8481            0.0000000000
     50359      8681  TIP3      H2             39.4295558393        9.4813064325      -47.3449086431  TIP3      8481            0.0000000000
     50360      8682  TIP3      OH2            39.2897525287       11.4608941990      -48.0297720980  TIP3      8482            0.0000000000
     50361      8682  TIP3      H1             40.0555384985       12.0037803384      -47.8408941100  TIP3      8482            0.0000000000
     50362      8682  TIP3      H2             39.7063955930       10.9546604667      -48.7764184236  TIP3      8482            0.0000000000
     50363      8683  TIP3      OH2            37.8221304359        3.9718710611      -48.8364379658  TIP3      8483            0.0000000000
     50364      8683  TIP3      H1             37.8767390735        4.9437265101      -48.9077956967  TIP3      8483            0.0000000000
     50365      8683  TIP3      H2             37.0929622421        3.7682498445      -49.4460706537  TIP3      8483            0.0000000000
     50366      8684  TIP3      OH2            38.6634374410       -1.2221319732      -40.3189254038  TIP3      8484            0.0000000000
     50367      8684  TIP3      H1             38.4782773325       -1.1717383385      -41.2781543725  TIP3      8484            0.0000000000
     50368      8684  TIP3      H2             38.2903107264       -2.0786790418      -40.0467993302  TIP3      8484            0.0000000000
     50369      8685  TIP3      OH2            37.4840039641       12.5519030212      -44.3211596356  TIP3      8485            0.0000000000
     50370      8685  TIP3      H1             36.7309552850       13.1539835774      -44.2838399623  TIP3      8485            0.0000000000
     50371      8685  TIP3      H2             38.1432028853       13.0921610053      -44.8028717939  TIP3      8485            0.0000000000
     50372      8686  TIP3      OH2            36.8540569374       15.3232376882      -32.9108387460  TIP3      8486            0.0000000000
     50373      8686  TIP3      H1             37.4648880766       15.1170495574      -32.1729575194  TIP3      8486            0.0000000000
     50374      8686  TIP3      H2             36.4330224213       14.4614786526      -33.0953063129  TIP3      8486            0.0000000000
     50375      8687  TIP3      OH2            36.7744692232        9.0938791594      -31.9233573823  TIP3      8487            0.0000000000
     50376      8687  TIP3      H1             36.9547295341        8.1893823019      -32.2378931670  TIP3      8487            0.0000000000
     50377      8687  TIP3      H2             36.0262747584        9.3602852803      -32.4887568929  TIP3      8487            0.0000000000
     50378      8688  TIP3      OH2            37.6991250204        6.3448691067      -32.5055356696  TIP3      8488            0.0000000000
     50379      8688  TIP3      H1             38.0090611980        5.4462162615      -32.6644820147  TIP3      8488            0.0000000000
     50380      8688  TIP3      H2             37.4236794818        6.3109510146      -31.5769648940  TIP3      8488            0.0000000000
     50381      8689  TIP3      OH2            38.4050993697        1.7602853019      -32.4067647778  TIP3      8489            0.0000000000
     50382      8689  TIP3      H1             38.6585623171        1.0509928165      -33.0291227126  TIP3      8489            0.0000000000
     50383      8689  TIP3      H2             38.4534105070        1.3246148367      -31.5344559673  TIP3      8489            0.0000000000
     50384      8690  TIP3      OH2            36.7891637681       10.9691516257      -48.6402770700  TIP3      8490            0.0000000000
     50385      8690  TIP3      H1             37.7506483281       11.0752188336      -48.4731306937  TIP3      8490            0.0000000000
     50386      8690  TIP3      H2             36.8272515284       10.3493501110      -49.3818490868  TIP3      8490            0.0000000000
     50387      8691  TIP3      OH2            35.5344114360       16.3323808715      -43.7430099690  TIP3      8491            0.0000000000
     50388      8691  TIP3      H1             34.8252845179       15.8481047118      -44.2226328430  TIP3      8491            0.0000000000
     50389      8691  TIP3      H2             35.8144361133       15.6843929659      -43.0738830691  TIP3      8491            0.0000000000
     50390      8692  TIP3      OH2            36.3858610879       14.4724496741      -41.8912855715  TIP3      8492            0.0000000000
     50391      8692  TIP3      H1             36.0345470013       13.5930125343      -41.6890899201  TIP3      8492            0.0000000000
     50392      8692  TIP3      H2             36.6083035739       14.8126750149      -41.0045982004  TIP3      8492            0.0000000000
     50393      8693  TIP3      OH2            36.4465427152        7.5454592375      -39.3992572919  TIP3      8493            0.0000000000
     50394      8693  TIP3      H1             36.6364696557        7.4604190992      -40.3578496460  TIP3      8493            0.0000000000
     50395      8693  TIP3      H2             37.3424874608        7.3604854769      -39.0286483899  TIP3      8493            0.0000000000
     50396      8694  TIP3      OH2            36.0034492489        2.8744661154      -33.2323396536  TIP3      8494            0.0000000000
     50397      8694  TIP3      H1             36.9374372762        2.6609176216      -33.0415176292  TIP3      8494            0.0000000000
     50398      8694  TIP3      H2             35.5746654980        2.0371067529      -32.9698790226  TIP3      8494            0.0000000000
     50399      8695  TIP3      OH2            37.1718361994        1.1354943902      -40.4156910890  TIP3      8495            0.0000000000
     50400      8695  TIP3      H1             37.7043045976        0.3459513427      -40.1863242375  TIP3      8495            0.0000000000
     50401      8695  TIP3      H2             37.7844787246        1.7955454635      -40.0348682857  TIP3      8495            0.0000000000
     50402      8696  TIP3      OH2            35.5406344124        4.1697965972      -39.3606116375  TIP3      8496            0.0000000000
     50403      8696  TIP3      H1             36.1389335589        3.9154965952      -40.1001847812  TIP3      8496            0.0000000000
     50404      8696  TIP3      H2             35.9982811719        4.9698004967      -39.0753550234  TIP3      8496            0.0000000000
     50405      8697  TIP3      OH2            35.9293773128        0.3562750436      -45.3155073276  TIP3      8497            0.0000000000
     50406      8697  TIP3      H1             34.9859249414        0.5983069906      -45.4068667004  TIP3      8497            0.0000000000
     50407      8697  TIP3      H2             36.3277628747        0.9138112830      -46.0145413770  TIP3      8497            0.0000000000
     50408      8698  TIP3      OH2            35.8473523939       -0.9517240016      -36.9820904488  TIP3      8498            0.0000000000
     50409      8698  TIP3      H1             35.1737116698       -1.1253825405      -36.2981166330  TIP3      8498            0.0000000000
     50410      8698  TIP3      H2             35.4158501363       -0.2668552810      -37.5320238488  TIP3      8498            0.0000000000
     50411      8699  TIP3      OH2            38.0946782005       12.2295213172      -32.7764592725  TIP3      8499            0.0000000000
     50412      8699  TIP3      H1             37.2925328772       12.4405583566      -33.2888685622  TIP3      8499            0.0000000000
     50413      8699  TIP3      H2             37.7401831154       12.2053247189      -31.8895222550  TIP3      8499            0.0000000000
     50414      8700  TIP3      OH2            38.3077658546       16.4162065650      -36.5240958266  TIP3      8500            0.0000000000
     50415      8700  TIP3      H1             37.6023174943       16.9488095427      -36.9288664139  TIP3      8500            0.0000000000
     50416      8700  TIP3      H2             38.0104573673       16.2672666683      -35.6246216081  TIP3      8500            0.0000000000
     50417      8701  TIP3      OH2            37.8127349721       15.1214290243      -39.6027759125  TIP3      8501            0.0000000000
     50418      8701  TIP3      H1             37.7727349022       14.7153882314      -38.7045619694  TIP3      8501            0.0000000000
     50419      8701  TIP3      H2             38.6751149298       14.8401363642      -39.9341154275  TIP3      8501            0.0000000000
     50420      8702  TIP3      OH2            37.9877543703       -1.4923840320      -42.8743908766  TIP3      8502            0.0000000000
     50421      8702  TIP3      H1             37.5585473160       -1.3214355946      -43.7252781089  TIP3      8502            0.0000000000
     50422      8702  TIP3      H2             38.8763006898       -1.8564054502      -43.0790813402  TIP3      8502            0.0000000000
     50423      8703  TIP3      OH2            37.1380645383       -1.6181406127      -47.3281832245  TIP3      8503            0.0000000000
     50424      8703  TIP3      H1             37.6348374083       -0.9682376436      -47.8895882680  TIP3      8503            0.0000000000
     50425      8703  TIP3      H2             36.5685034198       -0.9993541356      -46.8322062684  TIP3      8503            0.0000000000
     50426      8704  TIP3      OH2            37.0763019243       14.3422350540      -46.4371657728  TIP3      8504            0.0000000000
     50427      8704  TIP3      H1             36.3560430972       14.3420652246      -47.0798997157  TIP3      8504            0.0000000000
     50428      8704  TIP3      H2             37.0490858652       15.2654330089      -46.1507922298  TIP3      8504            0.0000000000
     50429      8705  TIP3      OH2            38.9572252414        0.2271874831      -48.7187485227  TIP3      8505            0.0000000000
     50430      8705  TIP3      H1             39.4663340606       -0.2211390266      -49.4158928122  TIP3      8505            0.0000000000
     50431      8705  TIP3      H2             39.6415058470        0.7300866586      -48.2747294163  TIP3      8505            0.0000000000
     50432      8706  TIP3      OH2            38.3231017059       -0.8279954103      -33.5556542192  TIP3      8506            0.0000000000
     50433      8706  TIP3      H1             37.9088177576       -1.6414367405      -33.2042870259  TIP3      8506            0.0000000000
     50434      8706  TIP3      H2             39.2562141468       -0.9170317179      -33.3220507977  TIP3      8506            0.0000000000
     50435      8707  TIP3      OH2            39.2030092118       15.4200043731      -49.1303371398  TIP3      8507            0.0000000000
     50436      8707  TIP3      H1             38.6834603748       15.5763172866      -48.3283014383  TIP3      8507            0.0000000000
     50437      8707  TIP3      H2             39.7774391712       14.6693352425      -49.0168604803  TIP3      8507            0.0000000000
     50438      8708  TIP3      OH2           -27.9596583783       26.6269003806      -43.2444280709  TIP3      8508            0.0000000000
     50439      8708  TIP3      H1            -27.9777035128       27.6072289464      -43.2679126466  TIP3      8508            0.0000000000
     50440      8708  TIP3      H2            -28.6943085460       26.3915912048      -43.8330830789  TIP3      8508            0.0000000000
     50441      8709  TIP3      OH2           -29.1034996240       25.8782199750      -39.7273487270  TIP3      8509            0.0000000000
     50442      8709  TIP3      H1            -29.1223767611       25.2291839865      -39.0099331571  TIP3      8509            0.0000000000
     50443      8709  TIP3      H2            -29.4585947552       25.3707033008      -40.4770259816  TIP3      8509            0.0000000000
     50444      8710  TIP3      OH2           -36.6617661759       25.5069109186      -38.2119533273  TIP3      8510            0.0000000000
     50445      8710  TIP3      H1            -36.6709216426       24.8659814289      -37.4713949731  TIP3      8510            0.0000000000
     50446      8710  TIP3      H2            -35.9974301287       26.1400506704      -37.9115106392  TIP3      8510            0.0000000000
     50447      8711  TIP3      OH2           -25.4232226234       28.8265377191      -41.4439520067  TIP3      8511            0.0000000000
     50448      8711  TIP3      H1            -25.8364269613       28.1095928565      -40.9530075873  TIP3      8511            0.0000000000
     50449      8711  TIP3      H2            -25.3974901763       29.5347188105      -40.7740166452  TIP3      8511            0.0000000000
     50450      8712  TIP3      OH2           -35.8384199136       29.9928022592      -39.6698870096  TIP3      8512            0.0000000000
     50451      8712  TIP3      H1            -36.1300869675       29.1256868508      -40.0038562077  TIP3      8512            0.0000000000
     50452      8712  TIP3      H2            -34.8803742950       29.8254831692      -39.6256519984  TIP3      8512            0.0000000000
     50453      8713  TIP3      OH2           -39.0918033750       23.6395867210      -44.3604477309  TIP3      8513            0.0000000000
     50454      8713  TIP3      H1            -39.6141593704       24.4422699388      -44.2205789005  TIP3      8513            0.0000000000
     50455      8713  TIP3      H2            -39.7936203709       23.0161574267      -44.6127692424  TIP3      8513            0.0000000000
     50456      8714  TIP3      OH2           -38.4148781427       25.8306486589      -41.9757064009  TIP3      8514            0.0000000000
     50457      8714  TIP3      H1            -38.2324695231       24.9563338989      -41.5817348930  TIP3      8514            0.0000000000
     50458      8714  TIP3      H2            -37.7662000296       25.8928178311      -42.6911924205  TIP3      8514            0.0000000000
     50459      8715  TIP3      OH2           -28.3146907959       33.9766545777      -41.2092863773  TIP3      8515            0.0000000000
     50460      8715  TIP3      H1            -27.6572958203       33.2958486785      -41.4937263382  TIP3      8515            0.0000000000
     50461      8715  TIP3      H2            -28.5200908582       33.6433117200      -40.3331915604  TIP3      8515            0.0000000000
     50462      8716  TIP3      OH2           -30.7333799875       28.2758036359      -39.2535756778  TIP3      8516            0.0000000000
     50463      8716  TIP3      H1            -30.3967310364       27.6520386474      -39.9138947022  TIP3      8516            0.0000000000
     50464      8716  TIP3      H2            -29.9211881648       28.4354752513      -38.7417318538  TIP3      8516            0.0000000000
     50465      8717  TIP3      OH2           -22.1398804033       19.9412483458      -38.5357347515  TIP3      8517            0.0000000000
     50466      8717  TIP3      H1            -21.9592328267       20.5253619281      -37.7688674547  TIP3      8517            0.0000000000
     50467      8717  TIP3      H2            -21.5680327624       20.3590787432      -39.1954372280  TIP3      8517            0.0000000000
     50468      8718  TIP3      OH2           -27.5643034502       22.7459871953      -38.9422793031  TIP3      8518            0.0000000000
     50469      8718  TIP3      H1            -27.3970156520       21.7868561039      -38.9375229517  TIP3      8518            0.0000000000
     50470      8718  TIP3      H2            -27.6677286446       22.8855654246      -39.9035035619  TIP3      8518            0.0000000000
     50471      8719  TIP3      OH2           -34.4802583528       20.8465068276      -41.7253062565  TIP3      8519            0.0000000000
     50472      8719  TIP3      H1            -34.3351972725       21.6703379823      -42.2283146433  TIP3      8519            0.0000000000
     50473      8719  TIP3      H2            -34.8426372685       20.2610241912      -42.4255816082  TIP3      8519            0.0000000000
     50474      8720  TIP3      OH2           -26.7120797042       20.9165937638      -43.3593487101  TIP3      8520            0.0000000000
     50475      8720  TIP3      H1            -26.0625538364       20.6017027219      -42.6885483856  TIP3      8520            0.0000000000
     50476      8720  TIP3      H2            -26.1470775143       21.4870263512      -43.9052622424  TIP3      8520            0.0000000000
     50477      8721  TIP3      OH2           -37.7958056210       23.2191496191      -41.0056687884  TIP3      8521            0.0000000000
     50478      8721  TIP3      H1            -37.1169851854       22.6870036248      -40.5584002850  TIP3      8521            0.0000000000
     50479      8721  TIP3      H2            -37.7092821328       22.9124759251      -41.9193729100  TIP3      8521            0.0000000000
     50480      8722  TIP3      OH2           -32.6699798141       24.8007683285      -41.6741669899  TIP3      8522            0.0000000000
     50481      8722  TIP3      H1            -31.9980121878       24.2203413359      -41.2737718922  TIP3      8522            0.0000000000
     50482      8722  TIP3      H2            -33.1838425611       24.1446301526      -42.1818683002  TIP3      8522            0.0000000000
     50483      8723  TIP3      OH2           -21.7027009401       21.3417723324      -36.2486306114  TIP3      8523            0.0000000000
     50484      8723  TIP3      H1            -22.3009096376       22.1111165538      -36.3678440642  TIP3      8523            0.0000000000
     50485      8723  TIP3      H2            -21.6386402364       21.2833006418      -35.2928893451  TIP3      8523            0.0000000000
     50486      8724  TIP3      OH2           -35.5403565469       19.7404519669      -37.6879881161  TIP3      8524            0.0000000000
     50487      8724  TIP3      H1            -35.8181898080       20.3012583293      -38.4426064820  TIP3      8524            0.0000000000
     50488      8724  TIP3      H2            -36.2314826962       19.9686188411      -37.0167956079  TIP3      8524            0.0000000000
     50489      8725  TIP3      OH2           -28.2640309068       29.2034159398      -44.1428865737  TIP3      8525            0.0000000000
     50490      8725  TIP3      H1            -28.5394833227       28.9285311720      -45.0302039588  TIP3      8525            0.0000000000
     50491      8725  TIP3      H2            -28.5610605492       30.1400210934      -44.0948621111  TIP3      8525            0.0000000000
     50492      8726  TIP3      OH2           -33.0358241663       27.3745353572      -37.4512917747  TIP3      8526            0.0000000000
     50493      8726  TIP3      H1            -33.7465198966       28.0107871679      -37.2218159111  TIP3      8526            0.0000000000
     50494      8726  TIP3      H2            -32.3297296677       27.9768273843      -37.7390671249  TIP3      8526            0.0000000000
     50495      8727  TIP3      OH2           -24.9039072535       20.2604057435      -41.3745745385  TIP3      8527            0.0000000000
     50496      8727  TIP3      H1            -25.1204883032       19.4945490539      -40.8352637387  TIP3      8527            0.0000000000
     50497      8727  TIP3      H2            -24.2286048861       20.7017087179      -40.8335758005  TIP3      8527            0.0000000000
     50498      8728  TIP3      OH2           -35.9871091770       21.5757286593      -39.6391978099  TIP3      8528            0.0000000000
     50499      8728  TIP3      H1            -35.3753833526       22.2799256537      -39.3278216413  TIP3      8528            0.0000000000
     50500      8728  TIP3      H2            -35.4604646201       21.1851926097      -40.3871116239  TIP3      8528            0.0000000000
     50501      8729  TIP3      OH2           -34.5801268517       29.3939448964      -36.6479225550  TIP3      8529            0.0000000000
     50502      8729  TIP3      H1            -34.6244880553       30.3128723333      -36.9651029666  TIP3      8529            0.0000000000
     50503      8729  TIP3      H2            -35.4634182925       29.3007785335      -36.2139514800  TIP3      8529            0.0000000000
     50504      8730  TIP3      OH2           -38.4796300889       29.0302809947      -45.8264652735  TIP3      8530            0.0000000000
     50505      8730  TIP3      H1            -38.7485250385       29.3107107415      -46.7013011223  TIP3      8530            0.0000000000
     50506      8730  TIP3      H2            -38.4290111642       29.8450370839      -45.2961640773  TIP3      8530            0.0000000000
     50507      8731  TIP3      OH2           -24.8945351888       30.6638604393      -39.0768637258  TIP3      8531            0.0000000000
     50508      8731  TIP3      H1            -25.8621392709       30.7768853564      -38.9583286591  TIP3      8531            0.0000000000
     50509      8731  TIP3      H2            -24.6235324715       31.5798725596      -39.2802312507  TIP3      8531            0.0000000000
     50510      8732  TIP3      OH2           -24.5622921325       18.9626058138      -37.6489063842  TIP3      8532            0.0000000000
     50511      8732  TIP3      H1            -25.2962169432       19.5758882041      -37.8035960021  TIP3      8532            0.0000000000
     50512      8732  TIP3      H2            -23.8568979201       19.3566706203      -38.2009422231  TIP3      8532            0.0000000000
     50513      8733  TIP3      OH2           -31.6071945486       17.0683284526      -40.2237983567  TIP3      8533            0.0000000000
     50514      8733  TIP3      H1            -31.7527068264       16.1054451212      -40.2996896635  TIP3      8533            0.0000000000
     50515      8733  TIP3      H2            -32.4850237113       17.3755072790      -39.9164762056  TIP3      8533            0.0000000000
     50516      8734  TIP3      OH2           -26.6253715061       32.4535928960      -42.4783762776  TIP3      8534            0.0000000000
     50517      8734  TIP3      H1            -26.2069000092       31.7334489291      -42.9973886949  TIP3      8534            0.0000000000
     50518      8734  TIP3      H2            -26.1884442398       33.2464668322      -42.8633290257  TIP3      8534            0.0000000000
     50519      8735  TIP3      OH2           -25.4227392120       30.3682718577      -43.9519371908  TIP3      8535            0.0000000000
     50520      8735  TIP3      H1            -25.7124507610       29.6833399036      -44.5806488780  TIP3      8535            0.0000000000
     50521      8735  TIP3      H2            -25.3896925671       29.8668863558      -43.1194991469  TIP3      8535            0.0000000000
     50522      8736  TIP3      OH2           -23.8011868187       28.9714057308      -35.4766039446  TIP3      8536            0.0000000000
     50523      8736  TIP3      H1            -23.6592610704       28.3170290333      -36.1962601274  TIP3      8536            0.0000000000
     50524      8736  TIP3      H2            -23.5994352407       29.8128153611      -35.9236361101  TIP3      8536            0.0000000000
     50525      8737  TIP3      OH2           -29.3210598336       25.8914283593      -45.7154896098  TIP3      8537            0.0000000000
     50526      8737  TIP3      H1            -30.0141594610       26.4723791174      -46.0899097238  TIP3      8537            0.0000000000
     50527      8737  TIP3      H2            -28.6028202027       25.9635759218      -46.3737958094  TIP3      8537            0.0000000000
     50528      8738  TIP3      OH2           -29.2068729382       24.3575628842      -48.6770920852  TIP3      8538            0.0000000000
     50529      8738  TIP3      H1            -28.4886547901       24.3938342489      -48.0168313997  TIP3      8538            0.0000000000
     50530      8738  TIP3      H2            -28.8734054636       23.6582367963      -49.2683262079  TIP3      8538            0.0000000000
     50531      8739  TIP3      OH2           -21.9143363397       25.2859460308      -37.4368627423  TIP3      8539            0.0000000000
     50532      8739  TIP3      H1            -22.5740955709       26.0081612039      -37.3971000075  TIP3      8539            0.0000000000
     50533      8739  TIP3      H2            -21.4196282282       25.5210361421      -38.2456364005  TIP3      8539            0.0000000000
     50534      8740  TIP3      OH2           -25.8654311473       26.0813139480      -44.7729343292  TIP3      8540            0.0000000000
     50535      8740  TIP3      H1            -26.6129148133       26.3153514157      -44.1721216379  TIP3      8540            0.0000000000
     50536      8740  TIP3      H2            -25.3863872325       25.4027180859      -44.2658523813  TIP3      8540            0.0000000000
     50537      8741  TIP3      OH2           -25.9263660405       24.2358524158      -35.6695243113  TIP3      8541            0.0000000000
     50538      8741  TIP3      H1            -25.9248047570       25.0521791949      -35.1439508044  TIP3      8541            0.0000000000
     50539      8741  TIP3      H2            -26.5581588418       24.5268692049      -36.3591847453  TIP3      8541            0.0000000000
     50540      8742  TIP3      OH2           -34.2293499438       26.7419554190      -42.8693448692  TIP3      8542            0.0000000000
     50541      8742  TIP3      H1            -34.5717743928       26.3519316838      -43.7123059205  TIP3      8542            0.0000000000
     50542      8742  TIP3      H2            -33.6281651288       26.0376342613      -42.5389698720  TIP3      8542            0.0000000000
     50543      8743  TIP3      OH2           -32.9335068646       30.1106816508      -40.1931729136  TIP3      8543            0.0000000000
     50544      8743  TIP3      H1            -32.9338295593       29.5919543480      -41.0062610892  TIP3      8543            0.0000000000
     50545      8743  TIP3      H2            -32.1475296421       29.7581047981      -39.7368964988  TIP3      8543            0.0000000000
     50546      8744  TIP3      OH2           -33.9105592085       25.4670039085      -39.2233976396  TIP3      8544            0.0000000000
     50547      8744  TIP3      H1            -33.3628784572       25.5781526577      -40.0219582390  TIP3      8544            0.0000000000
     50548      8744  TIP3      H2            -33.5494891625       26.1413243829      -38.6061282552  TIP3      8544            0.0000000000
     50549      8745  TIP3      OH2           -27.5060654387       31.0544392157      -38.5067422510  TIP3      8545            0.0000000000
     50550      8745  TIP3      H1            -27.7844862996       31.6848918551      -37.8367010428  TIP3      8545            0.0000000000
     50551      8745  TIP3      H2            -27.7540840625       30.1979495535      -38.0864542478  TIP3      8545            0.0000000000
     50552      8746  TIP3      OH2           -32.9679120063       29.9130906282      -34.5218559002  TIP3      8546            0.0000000000
     50553      8746  TIP3      H1            -33.3736495888       30.6617076510      -34.0402113426  TIP3      8546            0.0000000000
     50554      8746  TIP3      H2            -33.6373520470       29.7071143467      -35.2155732911  TIP3      8546            0.0000000000
     50555      8747  TIP3      OH2           -27.0224879810       25.2808432763      -47.1150690499  TIP3      8547            0.0000000000
     50556      8747  TIP3      H1            -26.4450258495       25.4515644526      -46.3330447892  TIP3      8547            0.0000000000
     50557      8747  TIP3      H2            -26.5356180288       25.7519941575      -47.8351586129  TIP3      8547            0.0000000000
     50558      8748  TIP3      OH2           -35.9370114810       26.1545792387      -35.3859229261  TIP3      8548            0.0000000000
     50559      8748  TIP3      H1            -35.9614144204       26.7688513230      -34.6334315815  TIP3      8548            0.0000000000
     50560      8748  TIP3      H2            -36.9042945578       26.0832016953      -35.5593569345  TIP3      8548            0.0000000000
     50561      8749  TIP3      OH2           -29.2567355282       32.0039397498      -43.6736187025  TIP3      8549            0.0000000000
     50562      8749  TIP3      H1            -28.8398895333       32.2999670645      -42.8544630583  TIP3      8549            0.0000000000
     50563      8749  TIP3      H2            -29.8345535098       32.7435586425      -43.8885954238  TIP3      8549            0.0000000000
     50564      8750  TIP3      OH2           -34.7180084605       31.9295207464      -33.7706048819  TIP3      8550            0.0000000000
     50565      8750  TIP3      H1            -34.7783435313       31.8414391171      -34.7387564806  TIP3      8550            0.0000000000
     50566      8750  TIP3      H2            -35.6482322068       31.8199221488      -33.5058617210  TIP3      8550            0.0000000000
     50567      8751  TIP3      OH2           -23.2413690470       16.9845232237      -47.2710145780  TIP3      8551            0.0000000000
     50568      8751  TIP3      H1            -24.1848618316       17.0846764881      -46.9921715712  TIP3      8551            0.0000000000
     50569      8751  TIP3      H2            -23.0751819924       17.8564572065      -47.6675812867  TIP3      8551            0.0000000000
     50570      8752  TIP3      OH2           -35.2757700922       25.7567837028      -45.2431199084  TIP3      8552            0.0000000000
     50571      8752  TIP3      H1            -35.5769069438       26.5232791182      -45.7711247153  TIP3      8552            0.0000000000
     50572      8752  TIP3      H2            -35.9279099165       25.0905074642      -45.4683940690  TIP3      8552            0.0000000000
     50573      8753  TIP3      OH2           -22.1788410903       31.3831852053      -48.7538315023  TIP3      8553            0.0000000000
     50574      8753  TIP3      H1            -22.0061075130       32.3337979804      -48.6724667000  TIP3      8553            0.0000000000
     50575      8753  TIP3      H2            -21.2879962904       31.0072843329      -48.8586787671  TIP3      8553            0.0000000000
     50576      8754  TIP3      OH2           -39.0157085559       28.1697487453      -36.4730105632  TIP3      8554            0.0000000000
     50577      8754  TIP3      H1            -39.6214826020       28.1784502927      -37.2320606115  TIP3      8554            0.0000000000
     50578      8754  TIP3      H2            -39.1441947064       27.2675169918      -36.1664260483  TIP3      8554            0.0000000000
     50579      8755  TIP3      OH2           -38.9543183641       31.5419974258      -39.8397090761  TIP3      8555            0.0000000000
     50580      8755  TIP3      H1            -38.3190358801       30.8761856355      -39.5466759952  TIP3      8555            0.0000000000
     50581      8755  TIP3      H2            -39.4544983440       31.6933738981      -39.0179538419  TIP3      8555            0.0000000000
     50582      8756  TIP3      OH2           -21.1549676693       31.5920595251      -33.6961293086  TIP3      8556            0.0000000000
     50583      8756  TIP3      H1            -21.3253595451       30.6695182960      -33.9753988484  TIP3      8556            0.0000000000
     50584      8756  TIP3      H2            -22.0976514708       31.8712169619      -33.5601836811  TIP3      8556            0.0000000000
     50585      8757  TIP3      OH2           -30.2334790889       31.1605974823      -35.0340924569  TIP3      8557            0.0000000000
     50586      8757  TIP3      H1            -30.1746169555       32.0028173790      -34.5255775634  TIP3      8557            0.0000000000
     50587      8757  TIP3      H2            -31.1103098035       30.8060068433      -34.7893099555  TIP3      8557            0.0000000000
     50588      8758  TIP3      OH2           -29.7905669415       34.8933410513      -45.2522206133  TIP3      8558            0.0000000000
     50589      8758  TIP3      H1            -29.9043135697       34.8222346488      -46.2032094760  TIP3      8558            0.0000000000
     50590      8758  TIP3      H2            -29.7962746644       35.8480952666      -45.0550532070  TIP3      8558            0.0000000000
     50591      8759  TIP3      OH2           -36.1615354158       33.7989945519      -43.4151344358  TIP3      8559            0.0000000000
     50592      8759  TIP3      H1            -35.9954058016       33.3708702860      -42.5484009542  TIP3      8559            0.0000000000
     50593      8759  TIP3      H2            -36.9894055203       33.3661964516      -43.6680057616  TIP3      8559            0.0000000000
     50594      8760  TIP3      OH2           -26.8981134092       34.1885204777      -48.2150456373  TIP3      8560            0.0000000000
     50595      8760  TIP3      H1            -26.3660313890       33.4573905506      -48.6515938521  TIP3      8560            0.0000000000
     50596      8760  TIP3      H2            -26.6906516401       33.8832060055      -47.3045890915  TIP3      8560            0.0000000000
     50597      8761  TIP3      OH2           -27.0566541610       34.0598411068      -45.4686062413  TIP3      8561            0.0000000000
     50598      8761  TIP3      H1            -28.0087630971       34.1323357637      -45.2619018954  TIP3      8561            0.0000000000
     50599      8761  TIP3      H2            -26.8030041970       33.3104668721      -44.9039921569  TIP3      8561            0.0000000000
     50600      8762  TIP3      OH2           -24.0594110621       23.0650014090      -33.4071029379  TIP3      8562            0.0000000000
     50601      8762  TIP3      H1            -24.5051124400       23.5506734385      -34.1283751447  TIP3      8562            0.0000000000
     50602      8762  TIP3      H2            -24.0549229090       22.1675403836      -33.7564550034  TIP3      8562            0.0000000000
     50603      8763  TIP3      OH2           -36.9243929466       29.5336220820      -35.4259220862  TIP3      8563            0.0000000000
     50604      8763  TIP3      H1            -36.7298430890       29.1370232725      -34.5526697232  TIP3      8563            0.0000000000
     50605      8763  TIP3      H2            -37.7883287499       29.1168752185      -35.6547483069  TIP3      8563            0.0000000000
     50606      8764  TIP3      OH2           -34.2089927189       17.9841347360      -39.4798862774  TIP3      8564            0.0000000000
     50607      8764  TIP3      H1            -35.1183416851       17.8495151338      -39.8378645736  TIP3      8564            0.0000000000
     50608      8764  TIP3      H2            -34.3527419541       18.8064242221      -38.9848037352  TIP3      8564            0.0000000000
     50609      8765  TIP3      OH2           -29.5814623372       17.6381864696      -36.1179848042  TIP3      8565            0.0000000000
     50610      8765  TIP3      H1            -29.1992240300       17.2072240579      -35.3329156546  TIP3      8565            0.0000000000
     50611      8765  TIP3      H2            -30.5524859227       17.5211785913      -35.9755311045  TIP3      8565            0.0000000000
     50612      8766  TIP3      OH2           -26.2702612947       21.4916178494      -35.1789180866  TIP3      8566            0.0000000000
     50613      8766  TIP3      H1            -26.8902378391       21.2952688458      -34.4364098580  TIP3      8566            0.0000000000
     50614      8766  TIP3      H2            -26.4744181176       22.4058490643      -35.4534205938  TIP3      8566            0.0000000000
     50615      8767  TIP3      OH2           -25.2907488039       26.1899394479      -48.9174046798  TIP3      8567            0.0000000000
     50616      8767  TIP3      H1            -25.4304573003       26.0598158380      -49.8705122828  TIP3      8567            0.0000000000
     50617      8767  TIP3      H2            -24.5193780354       26.7727752968      -49.0558600871  TIP3      8567            0.0000000000
     50618      8768  TIP3      OH2           -29.9034972312       20.2386171357      -48.7676803045  TIP3      8568            0.0000000000
     50619      8768  TIP3      H1            -30.2539818323       20.1611609697      -47.8567456074  TIP3      8568            0.0000000000
     50620      8768  TIP3      H2            -30.2096838738       19.3849471817      -49.0991720967  TIP3      8568            0.0000000000
     50621      8769  TIP3      OH2           -34.0917653148       22.9348062182      -38.2177007846  TIP3      8569            0.0000000000
     50622      8769  TIP3      H1            -34.8270757032       22.9269283236      -37.5743904924  TIP3      8569            0.0000000000
     50623      8769  TIP3      H2            -34.1705441592       23.8458069227      -38.5848145416  TIP3      8569            0.0000000000
     50624      8770  TIP3      OH2           -34.1521758492       23.0583279932      -43.3513245972  TIP3      8570            0.0000000000
     50625      8770  TIP3      H1            -35.0904761482       22.8176313932      -43.4898567624  TIP3      8570            0.0000000000
     50626      8770  TIP3      H2            -33.7819775014       22.7735832162      -44.2094178513  TIP3      8570            0.0000000000
     50627      8771  TIP3      OH2           -28.6469518816       23.5681855108      -44.6053739503  TIP3      8571            0.0000000000
     50628      8771  TIP3      H1            -29.0248934947       24.3999445189      -44.9587874431  TIP3      8571            0.0000000000
     50629      8771  TIP3      H2            -27.9365896598       23.3941624122      -45.2502048264  TIP3      8571            0.0000000000
     50630      8772  TIP3      OH2           -29.5812527559       23.7620597674      -33.1722263711  TIP3      8572            0.0000000000
     50631      8772  TIP3      H1            -30.1038959545       23.0031673024      -32.8099633835  TIP3      8572            0.0000000000
     50632      8772  TIP3      H2            -28.7685310930       23.6564795420      -32.6418708372  TIP3      8572            0.0000000000
     50633      8773  TIP3      OH2           -27.5991325940       23.0506862822      -41.7393062683  TIP3      8573            0.0000000000
     50634      8773  TIP3      H1            -27.8882145877       23.6193734837      -42.4735673283  TIP3      8573            0.0000000000
     50635      8773  TIP3      H2            -27.5089851210       22.2053094872      -42.2211936639  TIP3      8573            0.0000000000
     50636      8774  TIP3      OH2           -36.4344702669       23.1792556861      -36.5329730722  TIP3      8574            0.0000000000
     50637      8774  TIP3      H1            -36.4519828226       23.6182398310      -35.6665433668  TIP3      8574            0.0000000000
     50638      8774  TIP3      H2            -36.9401936998       22.3713648117      -36.3411708923  TIP3      8574            0.0000000000
     50639      8775  TIP3      OH2           -33.0964233602       20.5806481371      -49.6746981771  TIP3      8575            0.0000000000
     50640      8775  TIP3      H1            -33.5412413678       20.1753032144      -48.9004092353  TIP3      8575            0.0000000000
     50641      8775  TIP3      H2            -33.8183791690       20.9725735094      -50.1731065566  TIP3      8575            0.0000000000
     50642      8776  TIP3      OH2           -39.7929801289       20.3174485106      -42.5999580632  TIP3      8576            0.0000000000
     50643      8776  TIP3      H1            -39.1445030546       20.2059543510      -41.8796682498  TIP3      8576            0.0000000000
     50644      8776  TIP3      H2            -39.3904192980       19.8374515115      -43.3360215481  TIP3      8576            0.0000000000
     50645      8777  TIP3      OH2           -38.5666514381       21.0808351870      -47.2103118798  TIP3      8577            0.0000000000
     50646      8777  TIP3      H1            -38.0257313457       21.6835545796      -47.7521530241  TIP3      8577            0.0000000000
     50647      8777  TIP3      H2            -39.2638313434       21.6654114761      -46.9057797636  TIP3      8577            0.0000000000
     50648      8778  TIP3      OH2           -28.4057834769       24.6398313424      -37.1894666430  TIP3      8578            0.0000000000
     50649      8778  TIP3      H1            -28.0264241184       23.9513077894      -37.7721178426  TIP3      8578            0.0000000000
     50650      8778  TIP3      H2            -28.8756426524       24.1132717596      -36.5187437743  TIP3      8578            0.0000000000
     50651      8779  TIP3      OH2           -31.6012381903       20.6219005769      -42.3507743805  TIP3      8579            0.0000000000
     50652      8779  TIP3      H1            -32.5347272673       20.6199981991      -42.0605526506  TIP3      8579            0.0000000000
     50653      8779  TIP3      H2            -31.1208962331       20.4444730494      -41.5273245645  TIP3      8579            0.0000000000
     50654      8780  TIP3      OH2           -36.7875173402       22.1650455962      -43.4780504059  TIP3      8580            0.0000000000
     50655      8780  TIP3      H1            -37.6692741682       22.3253183445      -43.8579734400  TIP3      8580            0.0000000000
     50656      8780  TIP3      H2            -36.5380185262       21.3099150897      -43.8698242853  TIP3      8580            0.0000000000
     50657      8781  TIP3      OH2           -33.1481566729       22.2189039997      -45.8364895488  TIP3      8581            0.0000000000
     50658      8781  TIP3      H1            -32.1908566909       22.3153378657      -45.6721239678  TIP3      8581            0.0000000000
     50659      8781  TIP3      H2            -33.3815858585       22.8815329477      -46.5170170543  TIP3      8581            0.0000000000
     50660      8782  TIP3      OH2           -27.1959471380       19.8547574976      -39.1145987294  TIP3      8582            0.0000000000
     50661      8782  TIP3      H1            -27.8821587973       19.9001652910      -38.4057335392  TIP3      8582            0.0000000000
     50662      8782  TIP3      H2            -27.7091266910       19.5956222522      -39.8937370785  TIP3      8582            0.0000000000
     50663      8783  TIP3      OH2           -34.4040402539       23.3955462302      -48.2375228576  TIP3      8583            0.0000000000
     50664      8783  TIP3      H1            -35.0004436453       23.0553924145      -48.9063236731  TIP3      8583            0.0000000000
     50665      8783  TIP3      H2            -33.6065386565       23.6114129427      -48.7404163045  TIP3      8583            0.0000000000
     50666      8784  TIP3      OH2           -23.9718976403       35.4415946463      -32.7845082526  TIP3      8584            0.0000000000
     50667      8784  TIP3      H1            -23.7535713404       35.8773698843      -33.6249827493  TIP3      8584            0.0000000000
     50668      8784  TIP3      H2            -23.3126778316       35.8794643069      -32.2229456353  TIP3      8584            0.0000000000
     50669      8785  TIP3      OH2           -36.3082902716       27.9622630805      -33.1961499595  TIP3      8585            0.0000000000
     50670      8785  TIP3      H1            -35.5704279016       28.1986620826      -32.6026429537  TIP3      8585            0.0000000000
     50671      8785  TIP3      H2            -37.0746248087       28.0443448954      -32.5961471290  TIP3      8585            0.0000000000
     50672      8786  TIP3      OH2           -30.3276627857       23.3719677449      -40.4573500071  TIP3      8586            0.0000000000
     50673      8786  TIP3      H1            -29.7247832133       22.8403283415      -40.9896013148  TIP3      8586            0.0000000000
     50674      8786  TIP3      H2            -30.4690444276       22.8230098803      -39.6740181950  TIP3      8586            0.0000000000
     50675      8787  TIP3      OH2           -35.3140326017       19.5233973487      -44.0124032815  TIP3      8587            0.0000000000
     50676      8787  TIP3      H1            -35.6297217905       18.5990130119      -44.0260276938  TIP3      8587            0.0000000000
     50677      8787  TIP3      H2            -34.5213400202       19.4455991265      -44.5525491877  TIP3      8587            0.0000000000
     50678      8788  TIP3      OH2           -31.6822840324       21.6999871636      -38.0426170992  TIP3      8588            0.0000000000
     50679      8788  TIP3      H1            -32.5075075289       22.2187850132      -37.9561329136  TIP3      8588            0.0000000000
     50680      8788  TIP3      H2            -31.1274319419       22.0537588550      -37.3209706517  TIP3      8588            0.0000000000
     50681      8789  TIP3      OH2           -31.0848388675       27.9173994498      -46.3336084334  TIP3      8589            0.0000000000
     50682      8789  TIP3      H1            -31.8900762638       27.4639197097      -46.6618636465  TIP3      8589            0.0000000000
     50683      8789  TIP3      H2            -31.3092562714       28.0532629536      -45.3904254224  TIP3      8589            0.0000000000
     50684      8790  TIP3      OH2           -23.9054881736       27.1274347880      -37.5409365287  TIP3      8590            0.0000000000
     50685      8790  TIP3      H1            -23.3445005251       27.6096180590      -38.1756118350  TIP3      8590            0.0000000000
     50686      8790  TIP3      H2            -24.7665338810       27.1696459902      -38.0042371451  TIP3      8590            0.0000000000
     50687      8791  TIP3      OH2           -27.3100286744       20.7617790760      -47.9982624307  TIP3      8591            0.0000000000
     50688      8791  TIP3      H1            -28.2239187114       20.9164046312      -48.2769256719  TIP3      8591            0.0000000000
     50689      8791  TIP3      H2            -26.9555248953       21.6578480570      -47.8356552627  TIP3      8591            0.0000000000
     50690      8792  TIP3      OH2           -29.6021511200       28.1957169756      -35.0990050217  TIP3      8592            0.0000000000
     50691      8792  TIP3      H1            -29.9516166831       27.7639948373      -34.3121343440  TIP3      8592            0.0000000000
     50692      8792  TIP3      H2            -29.8608350997       29.1160773986      -34.9911226704  TIP3      8592            0.0000000000
     50693      8793  TIP3      OH2           -26.5309582958       22.7002693494      -46.4864770455  TIP3      8593            0.0000000000
     50694      8793  TIP3      H1            -25.6406622768       22.5120959183      -46.1172668759  TIP3      8593            0.0000000000
     50695      8793  TIP3      H2            -26.4162659445       23.4882675925      -47.0396491701  TIP3      8593            0.0000000000
     50696      8794  TIP3      OH2           -35.9784677271       27.3269011441      -40.5413499747  TIP3      8594            0.0000000000
     50697      8794  TIP3      H1            -35.3064763162       27.2421642528      -41.2411143508  TIP3      8594            0.0000000000
     50698      8794  TIP3      H2            -35.9202813968       26.4598912535      -40.1016795237  TIP3      8594            0.0000000000
     50699      8795  TIP3      OH2           -28.9560428223       29.3965738471      -47.2977650237  TIP3      8595            0.0000000000
     50700      8795  TIP3      H1            -29.3283751474       30.2371656184      -46.9644334432  TIP3      8595            0.0000000000
     50701      8795  TIP3      H2            -29.7131712429       28.7932713503      -47.1286122131  TIP3      8595            0.0000000000
     50702      8796  TIP3      OH2           -38.4565222404       25.3391916572      -35.3915337114  TIP3      8596            0.0000000000
     50703      8796  TIP3      H1            -38.6624459615       25.2629755977      -34.4353667898  TIP3      8596            0.0000000000
     50704      8796  TIP3      H2            -39.3898806611       25.2495086751      -35.6935762567  TIP3      8596            0.0000000000
     50705      8797  TIP3      OH2           -31.9784348054       25.3080908682      -33.1231228486  TIP3      8597            0.0000000000
     50706      8797  TIP3      H1            -32.2942092953       24.9556997386      -33.9635262903  TIP3      8597            0.0000000000
     50707      8797  TIP3      H2            -31.0622601667       24.9584874823      -33.0965271030  TIP3      8597            0.0000000000
     50708      8798  TIP3      OH2           -27.2947029303       30.6174200813      -35.1489713525  TIP3      8598            0.0000000000
     50709      8798  TIP3      H1            -28.2202948512       30.7940677439      -35.3855788293  TIP3      8598            0.0000000000
     50710      8798  TIP3      H2            -27.3272440153       30.9148646408      -34.2199825586  TIP3      8598            0.0000000000
     50711      8799  TIP3      OH2           -21.5965172969       22.7972067583      -46.7280267645  TIP3      8599            0.0000000000
     50712      8799  TIP3      H1            -22.1782633765       22.5286969721      -47.4739886656  TIP3      8599            0.0000000000
     50713      8799  TIP3      H2            -21.5366146684       23.7417700506      -46.9883960339  TIP3      8599            0.0000000000
     50714      8800  TIP3      OH2           -21.6221056289       28.6903641080      -33.9577639138  TIP3      8600            0.0000000000
     50715      8800  TIP3      H1            -22.5284418402       28.8571911381      -34.3283211892  TIP3      8600            0.0000000000
     50716      8800  TIP3      H2            -21.0961322574       28.5850330494      -34.7807628486  TIP3      8600            0.0000000000
     50717      8801  TIP3      OH2           -23.3228665305       31.6006835526      -46.3610382910  TIP3      8601            0.0000000000
     50718      8801  TIP3      H1            -23.7215946843       30.7777431132      -46.0636927429  TIP3      8601            0.0000000000
     50719      8801  TIP3      H2            -23.0506002988       31.4014165692      -47.2766376984  TIP3      8601            0.0000000000
     50720      8802  TIP3      OH2           -26.1313034168       26.4401885358      -39.2594593670  TIP3      8602            0.0000000000
     50721      8802  TIP3      H1            -27.0725273050       26.2309161068      -39.3691275644  TIP3      8602            0.0000000000
     50722      8802  TIP3      H2            -25.6994420255       25.6825373187      -39.6978548458  TIP3      8602            0.0000000000
     50723      8803  TIP3      OH2           -33.6212449989       30.7757352236      -43.1457397932  TIP3      8603            0.0000000000
     50724      8803  TIP3      H1            -33.1190253328       31.5784920623      -43.3624518366  TIP3      8603            0.0000000000
     50725      8803  TIP3      H2            -34.5040373221       31.0105987128      -43.4628644838  TIP3      8603            0.0000000000
     50726      8804  TIP3      OH2           -37.7962896615       25.5027540476      -48.3667587652  TIP3      8604            0.0000000000
     50727      8804  TIP3      H1            -37.2178887570       26.2584010081      -48.1396853828  TIP3      8604            0.0000000000
     50728      8804  TIP3      H2            -38.6770090511       25.9161046689      -48.3293471059  TIP3      8604            0.0000000000
     50729      8805  TIP3      OH2           -32.1894557046       28.4348451724      -43.6308185613  TIP3      8605            0.0000000000
     50730      8805  TIP3      H1            -32.5141465825       29.3552699440      -43.5566612681  TIP3      8605            0.0000000000
     50731      8805  TIP3      H2            -32.9138345375       27.9425953440      -43.1946438719  TIP3      8605            0.0000000000
     50732      8806  TIP3      OH2           -31.7561342509       32.6239523391      -37.2271967113  TIP3      8606            0.0000000000
     50733      8806  TIP3      H1            -31.2960176989       33.4278501877      -37.5189214351  TIP3      8606            0.0000000000
     50734      8806  TIP3      H2            -31.1254683751       32.2775375421      -36.5691966035  TIP3      8606            0.0000000000
     50735      8807  TIP3      OH2           -33.5155005898       33.4211584754      -44.0613342595  TIP3      8607            0.0000000000
     50736      8807  TIP3      H1            -34.4795905626       33.5763811676      -43.9749067907  TIP3      8607            0.0000000000
     50737      8807  TIP3      H2            -33.1477408446       34.2710174650      -43.7528162061  TIP3      8607            0.0000000000
     50738      8808  TIP3      OH2           -28.2332306317       28.6146687433      -37.6253344788  TIP3      8608            0.0000000000
     50739      8808  TIP3      H1            -28.5467011276       28.4286927520      -36.7143654616  TIP3      8608            0.0000000000
     50740      8808  TIP3      H2            -27.5846517813       27.9100845172      -37.7847545808  TIP3      8608            0.0000000000
     50741      8809  TIP3      OH2           -25.9900694059       29.6892363608      -48.4120387264  TIP3      8609            0.0000000000
     50742      8809  TIP3      H1            -25.6410907839       29.1707354447      -47.6672349107  TIP3      8609            0.0000000000
     50743      8809  TIP3      H2            -26.9242027475       29.4647535777      -48.3473532365  TIP3      8609            0.0000000000
     50744      8810  TIP3      OH2           -25.4069574950       33.1855606608      -35.1311647034  TIP3      8610            0.0000000000
     50745      8810  TIP3      H1            -26.1036248960       32.7008637987      -35.6081393226  TIP3      8610            0.0000000000
     50746      8810  TIP3      H2            -25.2247332408       33.8966224675      -35.7803111947  TIP3      8610            0.0000000000
     50747      8811  TIP3      OH2           -21.4200500539       34.0941601123      -48.3064638850  TIP3      8611            0.0000000000
     50748      8811  TIP3      H1            -20.7218028220       34.7493682386      -48.4777283586  TIP3      8611            0.0000000000
     50749      8811  TIP3      H2            -22.1481716641       34.6780319886      -47.9776705198  TIP3      8611            0.0000000000
     50750      8812  TIP3      OH2           -37.3214973783       20.4959722759      -35.7358116961  TIP3      8612            0.0000000000
     50751      8812  TIP3      H1            -38.2286302023       20.8305965735      -35.7365352725  TIP3      8612            0.0000000000
     50752      8812  TIP3      H2            -37.4321624998       19.6234014045      -35.3238633522  TIP3      8612            0.0000000000
     50753      8813  TIP3      OH2           -25.0995809981       28.3365921328      -46.2765072608  TIP3      8613            0.0000000000
     50754      8813  TIP3      H1            -25.3382609035       27.5240391358      -45.7909092158  TIP3      8613            0.0000000000
     50755      8813  TIP3      H2            -24.1478883435       28.3740762971      -46.1058027696  TIP3      8613            0.0000000000
     50756      8814  TIP3      OH2           -37.7387760565       32.2377334402      -37.3082464048  TIP3      8614            0.0000000000
     50757      8814  TIP3      H1            -37.4238738690       31.3275431751      -37.3074732420  TIP3      8614            0.0000000000
     50758      8814  TIP3      H2            -37.4866072049       32.5291732015      -36.4305480712  TIP3      8614            0.0000000000
     50759      8815  TIP3      OH2           -32.9725154298       30.3127535709      -47.5940902036  TIP3      8615            0.0000000000
     50760      8815  TIP3      H1            -32.7432176271       29.7693719756      -46.8348203596  TIP3      8615            0.0000000000
     50761      8815  TIP3      H2            -32.9223350340       31.2287179212      -47.2540845434  TIP3      8615            0.0000000000
     50762      8816  TIP3      OH2           -36.5203866055       27.5375161452      -47.1708642279  TIP3      8616            0.0000000000
     50763      8816  TIP3      H1            -37.1705814979       27.9223459476      -46.5437626286  TIP3      8616            0.0000000000
     50764      8816  TIP3      H2            -35.9556915927       28.3108840312      -47.3565144890  TIP3      8616            0.0000000000
     50765      8817  TIP3      OH2           -28.6153161848       20.2268718023      -36.7989050650  TIP3      8617            0.0000000000
     50766      8817  TIP3      H1            -27.9120637436       20.3026029978      -36.1473758779  TIP3      8617            0.0000000000
     50767      8817  TIP3      H2            -28.9982603107       19.3562038805      -36.5676011276  TIP3      8617            0.0000000000
     50768      8818  TIP3      OH2           -27.8921839386       19.7936342176      -45.6390154616  TIP3      8618            0.0000000000
     50769      8818  TIP3      H1            -27.6445267025       20.2483879639      -46.4737787205  TIP3      8618            0.0000000000
     50770      8818  TIP3      H2            -27.2865177301       20.2382920489      -45.0388690484  TIP3      8618            0.0000000000
     50771      8819  TIP3      OH2           -30.1604243312       31.9823768153      -46.8774200686  TIP3      8619            0.0000000000
     50772      8819  TIP3      H1            -31.0114823275       32.4494273119      -46.7921125274  TIP3      8619            0.0000000000
     50773      8819  TIP3      H2            -29.6588044646       32.4924325788      -47.5074617990  TIP3      8619            0.0000000000
     50774      8820  TIP3      OH2           -30.6301285565       21.5417253822      -44.8625905355  TIP3      8620            0.0000000000
     50775      8820  TIP3      H1            -29.8560247424       22.1380528765      -44.8306051210  TIP3      8620            0.0000000000
     50776      8820  TIP3      H2            -30.8978059467       21.4287450104      -43.9314679562  TIP3      8620            0.0000000000
     50777      8821  TIP3      OH2           -30.0713518301       22.5902855559      -35.7031835498  TIP3      8621            0.0000000000
     50778      8821  TIP3      H1            -30.0110491573       23.1145484643      -34.8728825689  TIP3      8621            0.0000000000
     50779      8821  TIP3      H2            -29.4268986209       21.8809753145      -35.5838462060  TIP3      8621            0.0000000000
     50780      8822  TIP3      OH2           -29.7870383678       18.6004407258      -43.9819957304  TIP3      8622            0.0000000000
     50781      8822  TIP3      H1            -30.1116289788       19.2610034430      -43.3452330222  TIP3      8622            0.0000000000
     50782      8822  TIP3      H2            -29.0944056217       19.1484015595      -44.4281784297  TIP3      8622            0.0000000000
     50783      8823  TIP3      OH2           -32.7930292716       33.0277193172      -46.8246251882  TIP3      8623            0.0000000000
     50784      8823  TIP3      H1            -32.6472678331       33.8490567981      -47.3469631296  TIP3      8623            0.0000000000
     50785      8823  TIP3      H2            -33.0640698568       33.3703532612      -45.9497245652  TIP3      8623            0.0000000000
     50786      8824  TIP3      OH2           -34.1155678924       19.7429662799      -47.2284200452  TIP3      8624            0.0000000000
     50787      8824  TIP3      H1            -34.1683646720       20.6315495503      -46.8351638897  TIP3      8624            0.0000000000
     50788      8824  TIP3      H2            -33.2152718427       19.4740495478      -46.9752313537  TIP3      8624            0.0000000000
     50789      8825  TIP3      OH2           -23.9330240108       20.4030119866      -34.7948348017  TIP3      8625            0.0000000000
     50790      8825  TIP3      H1            -24.8345031484       20.7808899779      -34.9713411500  TIP3      8625            0.0000000000
     50791      8825  TIP3      H2            -23.6003704930       20.4314533680      -35.7184532027  TIP3      8625            0.0000000000
     50792      8826  TIP3      OH2           -25.2904090148       24.2346851016      -40.8179011127  TIP3      8626            0.0000000000
     50793      8826  TIP3      H1            -26.1141344101       23.7868557851      -41.0977234780  TIP3      8626            0.0000000000
     50794      8826  TIP3      H2            -24.8101710901       23.5451319748      -40.3079020283  TIP3      8626            0.0000000000
     50795      8827  TIP3      OH2           -35.8020174188       30.1220818817      -48.1133775128  TIP3      8627            0.0000000000
     50796      8827  TIP3      H1            -35.1731345095       30.8278774297      -47.9229838913  TIP3      8627            0.0000000000
     50797      8827  TIP3      H2            -35.3958898488       29.7420254738      -48.9195574577  TIP3      8627            0.0000000000
     50798      8828  TIP3      OH2           -37.5435727858       22.8521344153      -48.9952254763  TIP3      8628            0.0000000000
     50799      8828  TIP3      H1            -37.5429787434       23.8201864237      -48.8569668383  TIP3      8628            0.0000000000
     50800      8828  TIP3      H2            -38.4072680628       22.6554466416      -49.3763532553  TIP3      8628            0.0000000000
     50801      8829  TIP3      OH2           -24.2216252803       33.4628948834      -39.1479780936  TIP3      8629            0.0000000000
     50802      8829  TIP3      H1            -24.3208021001       34.1557748028      -39.8328720218  TIP3      8629            0.0000000000
     50803      8829  TIP3      H2            -23.2603056480       33.5380003275      -38.9734426441  TIP3      8629            0.0000000000
     50804      8830  TIP3      OH2           -36.6926636889       17.6044794273      -40.3533356761  TIP3      8630            0.0000000000
     50805      8830  TIP3      H1            -36.9303306343       17.6164843571      -41.3061612979  TIP3      8630            0.0000000000
     50806      8830  TIP3      H2            -37.1673826557       16.7847436419      -40.0882744572  TIP3      8630            0.0000000000
     50807      8831  TIP3      OH2           -37.7532904055       31.5338854939      -44.1836862898  TIP3      8631            0.0000000000
     50808      8831  TIP3      H1            -38.5999372589       31.9912159161      -44.2231240335  TIP3      8631            0.0000000000
     50809      8831  TIP3      H2            -37.2697654722       32.0063343112      -44.8721422722  TIP3      8631            0.0000000000
     50810      8832  TIP3      OH2           -38.5298118365       34.1847424603      -32.9132854581  TIP3      8632            0.0000000000
     50811      8832  TIP3      H1            -37.9495164909       33.9645855668      -32.1650168252  TIP3      8632            0.0000000000
     50812      8832  TIP3      H2            -38.9901487512       33.3563058334      -33.0898467954  TIP3      8632            0.0000000000
     50813      8833  TIP3      OH2           -33.9066522759       33.1079726614      -31.3082515302  TIP3      8633            0.0000000000
     50814      8833  TIP3      H1            -33.1609907796       32.5943914010      -30.9678100273  TIP3      8633            0.0000000000
     50815      8833  TIP3      H2            -33.9423220171       32.8112177723      -32.2372457524  TIP3      8633            0.0000000000
     50816      8834  TIP3      OH2           -29.8345250760       32.5792395120      -49.9433150473  TIP3      8634            0.0000000000
     50817      8834  TIP3      H1            -30.4697638046       31.9091485416      -49.6554523453  TIP3      8634            0.0000000000
     50818      8834  TIP3      H2            -29.0629347773       32.0273157582      -50.1343577126  TIP3      8634            0.0000000000
     50819      8835  TIP3      OH2           -27.3747410942       31.4906880442      -32.5455637498  TIP3      8635            0.0000000000
     50820      8835  TIP3      H1            -27.6875910520       30.6032898145      -32.2717550842  TIP3      8635            0.0000000000
     50821      8835  TIP3      H2            -26.6091371647       31.6102536826      -31.9546015051  TIP3      8635            0.0000000000
     50822      8836  TIP3      OH2           -25.6078959609       32.2700540818      -49.3078596889  TIP3      8636            0.0000000000
     50823      8836  TIP3      H1            -25.0606246244       31.5338576119      -48.9775144481  TIP3      8636            0.0000000000
     50824      8836  TIP3      H2            -24.9479090532       32.6910173467      -49.9309683193  TIP3      8636            0.0000000000
     50825      8837  TIP3      OH2           -38.5897949422       27.8969726616      -31.8239424621  TIP3      8637            0.0000000000
     50826      8837  TIP3      H1            -38.4507513298       27.0008260105      -32.1929662168  TIP3      8637            0.0000000000
     50827      8837  TIP3      H2            -39.0729951505       28.3185397420      -32.5420559606  TIP3      8637            0.0000000000
     50828      8838  TIP3      OH2           -34.2305594630       28.2519304076      -49.8000862982  TIP3      8638            0.0000000000
     50829      8838  TIP3      H1            -34.1517018572       27.4812086745      -49.2250324124  TIP3      8638            0.0000000000
     50830      8838  TIP3      H2            -33.5550670361       28.1493107233      -50.4799677561  TIP3      8638            0.0000000000
     50831      8839  TIP3      OH2           -31.9486203527       27.9504266709      -32.5303681834  TIP3      8639            0.0000000000
     50832      8839  TIP3      H1            -32.2869739352       28.2536328118      -33.3945093977  TIP3      8639            0.0000000000
     50833      8839  TIP3      H2            -31.8757832369       26.9741977369      -32.6389137515  TIP3      8639            0.0000000000
     50834      8840  TIP3      OH2           -26.2538917755       27.8085235914      -35.1442074684  TIP3      8640            0.0000000000
     50835      8840  TIP3      H1            -25.4662754131       28.3877814769      -35.2019794477  TIP3      8640            0.0000000000
     50836      8840  TIP3      H2            -26.9553652940       28.4733080071      -35.1063592207  TIP3      8640            0.0000000000
     50837      8841  TIP3      OH2           -37.8016341382       25.1988744405      -32.5561957654  TIP3      8641            0.0000000000
     50838      8841  TIP3      H1            -37.3353499653       24.3507174166      -32.6530980204  TIP3      8641            0.0000000000
     50839      8841  TIP3      H2            -37.9913194241       25.1689377641      -31.6064172529  TIP3      8641            0.0000000000
     50840      8842  TIP3      OH2           -33.1370622991       26.2969399835      -47.4931971822  TIP3      8642            0.0000000000
     50841      8842  TIP3      H1            -33.6090865377       25.7973045477      -46.8067517452  TIP3      8642            0.0000000000
     50842      8842  TIP3      H2            -32.7889981483       25.5823384479      -48.0686377289  TIP3      8642            0.0000000000
     50843      8843  TIP3      OH2           -33.8523476038       24.1319141359      -35.1783986982  TIP3      8643            0.0000000000
     50844      8843  TIP3      H1            -34.4757545260       24.8360250736      -34.9262361341  TIP3      8643            0.0000000000
     50845      8843  TIP3      H2            -33.4548989773       24.5002413270      -35.9881060655  TIP3      8643            0.0000000000
     50846      8844  TIP3      OH2           -31.9407593684       24.5364081407      -49.1645065786  TIP3      8644            0.0000000000
     50847      8844  TIP3      H1            -32.1718852277       24.4036295773      -50.0992097616  TIP3      8644            0.0000000000
     50848      8844  TIP3      H2            -30.9660076914       24.6089555731      -49.1400704557  TIP3      8644            0.0000000000
     50849      8845  TIP3      OH2           -28.7651720142       26.7222763485      -31.8564295372  TIP3      8645            0.0000000000
     50850      8845  TIP3      H1            -27.8072529778       26.6831494171      -31.9402634487  TIP3      8645            0.0000000000
     50851      8845  TIP3      H2            -28.9486971123       25.9448345678      -31.2789287986  TIP3      8645            0.0000000000
     50852      8846  TIP3      OH2           -22.9248553894       26.5908272322       50.2286657978  TIP3      8646            0.0000000000
     50853      8846  TIP3      H1            -22.8697286632       26.3603737684       49.3025977380  TIP3      8646            0.0000000000
     50854      8846  TIP3      H2            -22.7266523418       27.5573715797       50.1267419106  TIP3      8646            0.0000000000
     50855      8847  TIP3      OH2           -33.4515618203       21.4963598731      -34.1341276726  TIP3      8647            0.0000000000
     50856      8847  TIP3      H1            -33.3390168524       20.8000882638      -34.8084905480  TIP3      8647            0.0000000000
     50857      8847  TIP3      H2            -33.4985792502       22.3202288099      -34.6609605117  TIP3      8647            0.0000000000
     50858      8848  TIP3      OH2           -33.0374487194       19.8862765150      -36.5741822113  TIP3      8648            0.0000000000
     50859      8848  TIP3      H1            -32.5296783463       20.3530601935      -37.2803066879  TIP3      8648            0.0000000000
     50860      8848  TIP3      H2            -33.9323569926       19.8115567557      -36.9778562236  TIP3      8648            0.0000000000
     50861      8849  TIP3      OH2           -31.4996074581       25.3801899615      -36.3362903583  TIP3      8649            0.0000000000
     50862      8849  TIP3      H1            -30.7432326897       25.2134146776      -36.9046319142  TIP3      8649            0.0000000000
     50863      8849  TIP3      H2            -31.8655755463       26.2136073583      -36.6710131717  TIP3      8649            0.0000000000
     50864      8850  TIP3      OH2           -27.0392394673       23.1531145378      -31.4601194174  TIP3      8650            0.0000000000
     50865      8850  TIP3      H1            -26.9032852052       22.2050070574      -31.3979505106  TIP3      8650            0.0000000000
     50866      8850  TIP3      H2            -26.1842678979       23.5730890260      -31.3163046934  TIP3      8650            0.0000000000
     50867      8851  TIP3      OH2           -25.7587813522       25.9273007759      -33.1974835810  TIP3      8651            0.0000000000
     50868      8851  TIP3      H1            -26.0152741475       26.6422665620      -33.8190960719  TIP3      8651            0.0000000000
     50869      8851  TIP3      H2            -24.8036831966       25.8898782696      -33.3916793254  TIP3      8651            0.0000000000
     50870      8852  TIP3      OH2           -35.0253874767       22.7898492226      -32.2312336549  TIP3      8652            0.0000000000
     50871      8852  TIP3      H1            -35.7637177068       22.1710116882      -32.3859366617  TIP3      8652            0.0000000000
     50872      8852  TIP3      H2            -34.3552776561       22.4142297597      -32.8325307628  TIP3      8652            0.0000000000
     50873      8853  TIP3      OH2           -32.2521077184       17.3250514436      -36.1876162998  TIP3      8653            0.0000000000
     50874      8853  TIP3      H1            -32.4369046642       18.2873601391      -36.2848841856  TIP3      8653            0.0000000000
     50875      8853  TIP3      H2            -32.9998872188       16.9548360423      -36.6881255770  TIP3      8653            0.0000000000
     50876      8854  TIP3      OH2           -31.0245461711       21.6142986225      -32.6775374782  TIP3      8654            0.0000000000
     50877      8854  TIP3      H1            -31.2126371755       21.4838960610      -31.7115207673  TIP3      8654            0.0000000000
     50878      8854  TIP3      H2            -31.8731228305       21.4370061476      -33.1110842769  TIP3      8654            0.0000000000
     50879      8855  TIP3      OH2           -28.2588814334       20.7344662585      -33.5217365939  TIP3      8655            0.0000000000
     50880      8855  TIP3      H1            -29.2122808973       20.8913627544      -33.3575632935  TIP3      8655            0.0000000000
     50881      8855  TIP3      H2            -28.0316745344       20.2014780928      -32.7421317272  TIP3      8655            0.0000000000
     50882      8856  TIP3      OH2           -26.8220712015       19.4371348470      -31.5491351995  TIP3      8656            0.0000000000
     50883      8856  TIP3      H1            -26.9817902738       18.4732922208      -31.4566293649  TIP3      8656            0.0000000000
     50884      8856  TIP3      H2            -27.0445015509       19.7796167374      -30.6442707113  TIP3      8656            0.0000000000
     50885      8857  TIP3      OH2           -36.7861529227       20.6714689428      -32.4350906228  TIP3      8657            0.0000000000
     50886      8857  TIP3      H1            -36.6422398566       19.9301029901      -33.0518039247  TIP3      8657            0.0000000000
     50887      8857  TIP3      H2            -36.9824206585       20.2270687596      -31.5877387357  TIP3      8657            0.0000000000
     50888      8858  TIP3      OH2           -32.0372186444       16.7199306055      -33.4881414704  TIP3      8658            0.0000000000
     50889      8858  TIP3      H1            -31.3660205324       16.0057604911      -33.4929982164  TIP3      8658            0.0000000000
     50890      8858  TIP3      H2            -32.1554227316       16.8608285326      -34.4471830901  TIP3      8658            0.0000000000
     50891      8859  TIP3      OH2           -31.7163642525       18.3140900391      -31.3795615111  TIP3      8659            0.0000000000
     50892      8859  TIP3      H1            -31.8564354435       17.8311151172      -32.2246486960  TIP3      8659            0.0000000000
     50893      8859  TIP3      H2            -32.2728851794       19.1107094489      -31.4745732008  TIP3      8659            0.0000000000
     50894      8860  TIP3      OH2           -32.1996430555       35.2654870358      -48.2275477576  TIP3      8660            0.0000000000
     50895      8860  TIP3      H1            -31.2394358962       35.3538686190      -48.1219862604  TIP3      8660            0.0000000000
     50896      8860  TIP3      H2            -32.4211888557       35.8975134700      -48.9259354852  TIP3      8660            0.0000000000
     50897      8861  TIP3      OH2           -38.2780913546       29.8431896909      -48.8699729019  TIP3      8661            0.0000000000
     50898      8861  TIP3      H1            -37.3458468879       29.8418811606      -48.5452032721  TIP3      8661            0.0000000000
     50899      8861  TIP3      H2            -38.3403661415       29.0500401110      -49.4211593905  TIP3      8661            0.0000000000
     50900      8862  TIP3      OH2            40.2970125984       35.3730070871      -43.9711075617  TIP3      8662            0.0000000000
     50901      8862  TIP3      H1             39.4793031419       34.9526966881      -44.2785572359  TIP3      8662            0.0000000000
     50902      8862  TIP3      H2             40.4035986802       34.7586345953      -43.2133178539  TIP3      8662            0.0000000000
     50903      8863  TIP3      OH2           -38.9562965998       33.3602759032      -41.8070042525  TIP3      8663            0.0000000000
     50904      8863  TIP3      H1            -39.2468149441       32.4406639430      -41.6216163927  TIP3      8663            0.0000000000
     50905      8863  TIP3      H2            -38.6938072774       33.6455164033      -40.9041024381  TIP3      8663            0.0000000000
     50906      8864  TIP3      OH2           -21.5111253387       34.1434375853      -38.9547438444  TIP3      8664            0.0000000000
     50907      8864  TIP3      H1            -21.4775560902       34.2951142466      -37.9953765397  TIP3      8664            0.0000000000
     50908      8864  TIP3      H2            -20.8021032104       34.7177101906      -39.2593965853  TIP3      8664            0.0000000000
     50909      8865  TIP3      OH2           -21.9203548766       33.7061210947      -35.9855717150  TIP3      8665            0.0000000000
     50910      8865  TIP3      H1            -22.4086853076       32.9627224628      -36.4013568371  TIP3      8665            0.0000000000
     50911      8865  TIP3      H2            -21.4287143505       33.2533366987      -35.2950710176  TIP3      8665            0.0000000000
     50912      8866  TIP3      OH2           -23.4756921448       29.4583488387      -31.3294653114  TIP3      8666            0.0000000000
     50913      8866  TIP3      H1            -24.3951876808       29.3960571052      -30.9967642310  TIP3      8666            0.0000000000
     50914      8866  TIP3      H2            -23.1809045580       30.2766353244      -30.9037594764  TIP3      8666            0.0000000000
     50915      8867  TIP3      OH2           -22.1801083491       27.7896741818      -45.8913605231  TIP3      8667            0.0000000000
     50916      8867  TIP3      H1            -21.3089792035       28.1753149264      -45.7134381654  TIP3      8667            0.0000000000
     50917      8867  TIP3      H2            -22.1872619172       27.0617084983      -45.2329408787  TIP3      8667            0.0000000000
     50918      8868  TIP3      OH2           -21.8203007165       25.8739447888      -44.0109509479  TIP3      8668            0.0000000000
     50919      8868  TIP3      H1            -22.5666181746       25.3520601216      -43.6366996131  TIP3      8668            0.0000000000
     50920      8868  TIP3      H2            -21.2205919604       25.9869532224      -43.2491486599  TIP3      8668            0.0000000000
     50921      8869  TIP3      OH2           -22.0599740306       28.5461850902      -39.0395628331  TIP3      8669            0.0000000000
     50922      8869  TIP3      H1            -21.2461473790       28.1704654694      -39.4199832499  TIP3      8669            0.0000000000
     50923      8869  TIP3      H2            -21.9155688568       29.5010959641      -39.2084084487  TIP3      8669            0.0000000000
     50924      8870  TIP3      OH2           -23.5042758705       31.4633114221      -36.7627279035  TIP3      8670            0.0000000000
     50925      8870  TIP3      H1            -24.1970049469       31.8017294394      -36.1757233536  TIP3      8670            0.0000000000
     50926      8870  TIP3      H2            -24.0499588752       31.0567604799      -37.4726889852  TIP3      8670            0.0000000000
     50927      8871  TIP3      OH2           -21.4856967674       25.7204550286      -47.6332914816  TIP3      8671            0.0000000000
     50928      8871  TIP3      H1            -22.0851401347       26.0257527858      -48.3516354652  TIP3      8671            0.0000000000
     50929      8871  TIP3      H2            -21.6193697431       26.4159834258      -46.9598783277  TIP3      8671            0.0000000000
     50930      8872  TIP3      OH2           -23.1879657434       22.9848503101      -48.7698222707  TIP3      8672            0.0000000000
     50931      8872  TIP3      H1            -23.0247261728       23.6051481472      -49.5107458644  TIP3      8672            0.0000000000
     50932      8872  TIP3      H2            -23.1395651406       22.1383256147      -49.2538944558  TIP3      8672            0.0000000000
     50933      8873  TIP3      OH2           -23.9914994783       24.3272133647      -43.4335838295  TIP3      8673            0.0000000000
     50934      8873  TIP3      H1            -24.1420790134       23.3738541779      -43.4863197795  TIP3      8673            0.0000000000
     50935      8873  TIP3      H2            -24.3238799791       24.5396899555      -42.5439995020  TIP3      8673            0.0000000000
     50936      8874  TIP3      OH2           -38.9012588824       26.2653211285      -39.2730179828  TIP3      8674            0.0000000000
     50937      8874  TIP3      H1            -38.7483740208       26.2668538194      -40.2467200894  TIP3      8674            0.0000000000
     50938      8874  TIP3      H2            -37.9776409225       26.2308762136      -38.9490711034  TIP3      8674            0.0000000000
     50939      8875  TIP3      OH2           -23.1373018866       26.2832433997      -33.7652711170  TIP3      8675            0.0000000000
     50940      8875  TIP3      H1            -22.5206063865       25.5325853338      -33.6245306208  TIP3      8675            0.0000000000
     50941      8875  TIP3      H2            -22.5393636680       27.0526537610      -33.7662335738  TIP3      8675            0.0000000000
     50942      8876  TIP3      OH2           -21.6293990988       24.1781178119      -33.1056953821  TIP3      8676            0.0000000000
     50943      8876  TIP3      H1            -22.5141207321       23.7935931420      -33.2689790092  TIP3      8676            0.0000000000
     50944      8876  TIP3      H2            -21.0657353936       23.3908748218      -33.1850038082  TIP3      8676            0.0000000000
     50945      8877  TIP3      OH2           -23.9140459906       20.2593064009      -49.9531246328  TIP3      8677            0.0000000000
     50946      8877  TIP3      H1            -23.3238612516       19.8564540069      -49.2910879441  TIP3      8677            0.0000000000
     50947      8877  TIP3      H2            -24.7941535885       19.9139772878      -49.7483636920  TIP3      8677            0.0000000000
     50948      8878  TIP3      OH2           -24.3409330177       21.8972887912      -45.0056610120  TIP3      8678            0.0000000000
     50949      8878  TIP3      H1            -24.0322554486       20.9729135053      -44.8608217467  TIP3      8678            0.0000000000
     50950      8878  TIP3      H2            -23.5421144540       22.3045291923      -45.3718774278  TIP3      8678            0.0000000000
     50951      8879  TIP3      OH2           -23.6899193430       22.4582466134      -39.5481881890  TIP3      8679            0.0000000000
     50952      8879  TIP3      H1            -22.7286923721       22.6871586735      -39.5667913819  TIP3      8679            0.0000000000
     50953      8879  TIP3      H2            -23.8750038598       22.5969435070      -38.6075120210  TIP3      8679            0.0000000000
     50954      8880  TIP3      OH2           -23.6212622838       23.1779485966      -36.7591324028  TIP3      8680            0.0000000000
     50955      8880  TIP3      H1            -24.5085575059       23.4660307264      -36.4498326476  TIP3      8680            0.0000000000
     50956      8880  TIP3      H2            -23.1905128919       24.0347167809      -36.9881795316  TIP3      8680            0.0000000000
     50957      8881  TIP3      OH2           -39.2356584216       21.7664359503      -33.4148019894  TIP3      8681            0.0000000000
     50958      8881  TIP3      H1            -38.3507802087       21.5517408446      -33.0734460753  TIP3      8681            0.0000000000
     50959      8881  TIP3      H2            -39.8053316096       21.1249573289      -32.9601304136  TIP3      8681            0.0000000000
     50960      8882  TIP3      OH2           -21.4220529415       17.2304202516      -31.4643424916  TIP3      8682            0.0000000000
     50961      8882  TIP3      H1            -20.9727769540       16.5753412997      -32.0319256419  TIP3      8682            0.0000000000
     50962      8882  TIP3      H2            -21.2176401109       18.0508052603      -31.9581526851  TIP3      8682            0.0000000000
     50963      8883  TIP3      OH2           -23.6493693749       19.1945531681      -44.9427666630  TIP3      8683            0.0000000000
     50964      8883  TIP3      H1            -23.4429256273       18.7600602677      -44.0870684962  TIP3      8683            0.0000000000
     50965      8883  TIP3      H2            -24.2677360839       18.5681883853      -45.3810794304  TIP3      8683            0.0000000000
     50966      8884  TIP3      OH2           -38.1084264882       19.9771614053      -40.4954544384  TIP3      8684            0.0000000000
     50967      8884  TIP3      H1            -37.7242128343       19.1594899363      -40.1231229684  TIP3      8684            0.0000000000
     50968      8884  TIP3      H2            -37.6743065258       20.6717875723      -39.9809636505  TIP3      8684            0.0000000000
     50969      8885  TIP3      OH2           -39.8503866948       23.5317711180      -39.4125400638  TIP3      8685            0.0000000000
     50970      8885  TIP3      H1            -39.3130504638       23.0559142483      -40.0654536895  TIP3      8685            0.0000000000
     50971      8885  TIP3      H2            -39.2048099441       24.0978351833      -38.9796565200  TIP3      8685            0.0000000000
     50972      8886  TIP3      OH2           -21.8650467878       19.3102472581      -33.0495936191  TIP3      8686            0.0000000000
     50973      8886  TIP3      H1            -22.7521890370       19.6715205107      -33.1840865730  TIP3      8686            0.0000000000
     50974      8886  TIP3      H2            -21.7687233127       18.8057882190      -33.8747903415  TIP3      8686            0.0000000000
     50975      8887  TIP3      OH2           -21.8151311485       19.2473635380      -48.3637439296  TIP3      8687            0.0000000000
     50976      8887  TIP3      H1            -21.4014330251       18.5654439427      -48.9115427800  TIP3      8687            0.0000000000
     50977      8887  TIP3      H2            -21.1192796024       19.9240840082      -48.3761852950  TIP3      8687            0.0000000000
     50978      8888  TIP3      OH2           -39.4900049861       19.2953962712      -45.3328159283  TIP3      8688            0.0000000000
     50979      8888  TIP3      H1            -40.4325018403       19.4445507865      -45.4722539384  TIP3      8688            0.0000000000
     50980      8888  TIP3      H2            -39.0452735294       19.7777795705      -46.0506017113  TIP3      8688            0.0000000000
     50981      8889  TIP3      OH2           -24.7840239018       34.2168739560      -43.3422252861  TIP3      8689            0.0000000000
     50982      8889  TIP3      H1            -24.1060516429       33.9054728955      -43.9642479599  TIP3      8689            0.0000000000
     50983      8889  TIP3      H2            -24.2718685114       34.7244141221      -42.6919388911  TIP3      8689            0.0000000000
     50984      8890  TIP3      OH2            40.3095799782       18.0630867073      -36.9720979654  TIP3      8690            0.0000000000
     50985      8890  TIP3      H1             39.5987582549       17.6648173205      -36.4362344940  TIP3      8690            0.0000000000
     50986      8890  TIP3      H2             39.7595889048       18.6095242886      -37.5443304140  TIP3      8690            0.0000000000
     50987      8891  TIP3      OH2           -37.3798687438       31.1369342325      -32.7943651758  TIP3      8691            0.0000000000
     50988      8891  TIP3      H1            -38.1981772788       31.3234387443      -33.2536268045  TIP3      8691            0.0000000000
     50989      8891  TIP3      H2            -37.6254985040       31.0278916504      -31.8683304289  TIP3      8691            0.0000000000
     50990      8892  TIP3      OH2           -34.4438533151       32.1369373476      -36.5391299210  TIP3      8692            0.0000000000
     50991      8892  TIP3      H1            -34.7822787312       33.0053131481      -36.8088888040  TIP3      8692            0.0000000000
     50992      8892  TIP3      H2            -33.5156670939       32.2192262286      -36.8456724209  TIP3      8692            0.0000000000
     50993      8893  TIP3      OH2           -30.1137267735       33.5594074308      -33.6368863118  TIP3      8693            0.0000000000
     50994      8893  TIP3      H1            -29.9779426319       33.2000201312      -32.7303433454  TIP3      8693            0.0000000000
     50995      8893  TIP3      H2            -29.2152286871       33.8592869955      -33.8874069349  TIP3      8693            0.0000000000
     50996      8894  TIP3      OH2           -27.8181444572       34.8798550468      -34.3378020760  TIP3      8694            0.0000000000
     50997      8894  TIP3      H1            -27.0994949564       34.2750840352      -34.5716834857  TIP3      8694            0.0000000000
     50998      8894  TIP3      H2            -27.4555457197       35.2384897489      -33.5022042884  TIP3      8694            0.0000000000
     50999      8895  TIP3      OH2           -22.8578909237       17.4132544485      -35.1822938159  TIP3      8695            0.0000000000
     51000      8895  TIP3      H1            -23.6351999729       17.7295471633      -35.6720330619  TIP3      8695            0.0000000000
     51001      8895  TIP3      H2            -22.6296346010       16.6229118011      -35.7275034863  TIP3      8695            0.0000000000
     51002      8896  TIP3      OH2           -37.0264522523       35.3699392913      -36.5197201088  TIP3      8696            0.0000000000
     51003      8896  TIP3      H1            -37.7696830361       35.8553491247      -36.9277595369  TIP3      8696            0.0000000000
     51004      8896  TIP3      H2            -37.3477464587       35.1557006021      -35.6360156325  TIP3      8696            0.0000000000
     51005      8897  TIP3      OH2           -34.5285165376       34.9300286865      -37.4661718586  TIP3      8697            0.0000000000
     51006      8897  TIP3      H1            -35.4257513660       35.0736708406      -37.0868366005  TIP3      8697            0.0000000000
     51007      8897  TIP3      H2            -34.5803599488       35.5153406322      -38.2418155261  TIP3      8697            0.0000000000
     51008      8898  TIP3      OH2           -29.8392605223       34.8561504292      -38.2806340638  TIP3      8698            0.0000000000
     51009      8898  TIP3      H1            -30.2924652906       35.3964088771      -38.9492650930  TIP3      8698            0.0000000000
     51010      8898  TIP3      H2            -29.6934492549       35.5140399445      -37.5674958441  TIP3      8698            0.0000000000
     51011      8899  TIP3      OH2           -27.5456699108       33.6660991565      -37.2694837393  TIP3      8699            0.0000000000
     51012      8899  TIP3      H1            -28.3995546822       33.9423025422      -37.6432754030  TIP3      8699            0.0000000000
     51013      8899  TIP3      H2            -27.0614985760       34.5067794023      -37.3539336103  TIP3      8699            0.0000000000
     51014      8900  TIP3      OH2           -24.9513330808       35.2677671399      -37.0436998279  TIP3      8700            0.0000000000
     51015      8900  TIP3      H1            -25.0296895451       36.2272053753      -37.2713994132  TIP3      8700            0.0000000000
     51016      8900  TIP3      H2            -24.7660902096       34.8771677382      -37.9212059734  TIP3      8700            0.0000000000
     51017      8901  TIP3      OH2           -37.5218909233       34.0635789670      -39.5952412146  TIP3      8701            0.0000000000
     51018      8901  TIP3      H1            -37.6225669243       33.5692044524      -38.7598493470  TIP3      8701            0.0000000000
     51019      8901  TIP3      H2            -36.7600378186       33.6195085773      -40.0096598161  TIP3      8701            0.0000000000
     51020      8902  TIP3      OH2           -35.4915576721       32.7093627658      -40.9485617233  TIP3      8702            0.0000000000
     51021      8902  TIP3      H1            -35.6560846044       31.7791717067      -40.7076246110  TIP3      8702            0.0000000000
     51022      8902  TIP3      H2            -34.6348152242       32.8761668767      -40.4964238788  TIP3      8702            0.0000000000
     51023      8903  TIP3      OH2           -32.8878583464       33.2072883983      -40.0685391704  TIP3      8703            0.0000000000
     51024      8903  TIP3      H1            -32.7180029953       32.2836765222      -40.3319966579  TIP3      8703            0.0000000000
     51025      8903  TIP3      H2            -32.8256598433       33.1636085008      -39.1029594458  TIP3      8703            0.0000000000
     51026      8904  TIP3      OH2           -29.4216108419       18.8598873626      -40.9416936190  TIP3      8704            0.0000000000
     51027      8904  TIP3      H1            -30.0955323125       18.2197398213      -40.6541792702  TIP3      8704            0.0000000000
     51028      8904  TIP3      H2            -28.8684554174       18.3222146610      -41.5192645704  TIP3      8704            0.0000000000
     51029      8905  TIP3      OH2           -24.2845550373       16.9062510182      -40.8747348737  TIP3      8705            0.0000000000
     51030      8905  TIP3      H1            -23.6722926069       17.4974544081      -41.3796604449  TIP3      8705            0.0000000000
     51031      8905  TIP3      H2            -25.1666398239       17.2660627128      -41.1027399911  TIP3      8705            0.0000000000
     51032      8906  TIP3      OH2           -22.6167805463       18.1535507029      -42.5928311928  TIP3      8706            0.0000000000
     51033      8906  TIP3      H1            -21.9283356765       17.5796212646      -43.0087443686  TIP3      8706            0.0000000000
     51034      8906  TIP3      H2            -22.1081955750       18.9908145643      -42.4868887362  TIP3      8706            0.0000000000
     51035      8907  TIP3      OH2           -37.0291597453       17.4793056411      -43.0729620457  TIP3      8707            0.0000000000
     51036      8907  TIP3      H1            -37.8157800744       17.2980209657      -43.6284844177  TIP3      8707            0.0000000000
     51037      8907  TIP3      H2            -36.5787526748       16.6164774041      -43.1395608322  TIP3      8707            0.0000000000
     51038      8908  TIP3      OH2           -38.2863975200       17.2375600490      -47.3411502116  TIP3      8708            0.0000000000
     51039      8908  TIP3      H1            -37.7680307436       17.8786559965      -47.8700431822  TIP3      8708            0.0000000000
     51040      8908  TIP3      H2            -38.8415139008       17.8329900286      -46.8081758094  TIP3      8708            0.0000000000
     51041      8909  TIP3      OH2           -32.5809440386       17.4091954071      -43.3004643097  TIP3      8709            0.0000000000
     51042      8909  TIP3      H1            -31.6791987279       17.7658823642      -43.3775595096  TIP3      8709            0.0000000000
     51043      8909  TIP3      H2            -32.6163993722       17.1884436218      -42.3692078306  TIP3      8709            0.0000000000
     51044      8910  TIP3      OH2           -26.8613450320       17.4269859968      -41.6765158333  TIP3      8710            0.0000000000
     51045      8910  TIP3      H1            -26.9174879344       17.5411038297      -42.6344744414  TIP3      8710            0.0000000000
     51046      8910  TIP3      H2            -27.2507128289       16.5271712395      -41.5432254068  TIP3      8710            0.0000000000
     51047      8911  TIP3      OH2           -25.5795408534       17.4531272026      -46.0044930342  TIP3      8711            0.0000000000
     51048      8911  TIP3      H1            -26.3278768740       18.0443855455      -46.1787264208  TIP3      8711            0.0000000000
     51049      8911  TIP3      H2            -26.0332984005       16.6065252901      -45.7883302704  TIP3      8711            0.0000000000
     51050      8912  TIP3      OH2           -38.3713476827       33.1822497500      -46.4281820732  TIP3      8712            0.0000000000
     51051      8912  TIP3      H1            -39.0318587050       33.2557329456      -47.1086013605  TIP3      8712            0.0000000000
     51052      8912  TIP3      H2            -38.3116048390       34.1103282243      -46.1401484771  TIP3      8712            0.0000000000
     51053      8913  TIP3      OH2           -36.4376977497       19.1750354590      -48.8372006553  TIP3      8713            0.0000000000
     51054      8913  TIP3      H1            -35.9711813024       18.4999453578      -49.3431305682  TIP3      8713            0.0000000000
     51055      8913  TIP3      H2            -35.7576509270       19.4738826093      -48.2118662545  TIP3      8713            0.0000000000
     51056      8914  TIP3      OH2           -31.4034222990       19.4436898006      -46.4595180017  TIP3      8714            0.0000000000
     51057      8914  TIP3      H1            -31.1767129600       18.8458025217      -45.7299665426  TIP3      8714            0.0000000000
     51058      8914  TIP3      H2            -31.3674252693       20.2912104974      -45.9618375259  TIP3      8714            0.0000000000
     51059      8915  TIP3      OH2           -29.4886169714       34.5733174181      -48.0951598319  TIP3      8715            0.0000000000
     51060      8915  TIP3      H1            -28.5050239470       34.5441162063      -48.1106168095  TIP3      8715            0.0000000000
     51061      8915  TIP3      H2            -29.7006589332       33.9259789013      -48.8071148775  TIP3      8715            0.0000000000
     51062      8916  TIP3      OH2           -22.7631521615       34.0025222380      -45.3027404295  TIP3      8716            0.0000000000
     51063      8916  TIP3      H1            -23.0069197343       33.2203363806      -45.8557987921  TIP3      8716            0.0000000000
     51064      8916  TIP3      H2            -22.8876117244       34.7473461610      -45.9243193515  TIP3      8716            0.0000000000
     51065      8917  TIP3      OH2           -37.1688848191       18.0447939574      -33.6184756767  TIP3      8717            0.0000000000
     51066      8917  TIP3      H1            -37.5600228742       17.2354035912      -33.2428983383  TIP3      8717            0.0000000000
     51067      8917  TIP3      H2            -36.2541633449       17.9818523473      -33.2550052592  TIP3      8717            0.0000000000
     51068      8918  TIP3      OH2           -35.1867197610       17.4021613875      -31.9963373576  TIP3      8718            0.0000000000
     51069      8918  TIP3      H1            -34.2948682412       17.0710179114      -32.2116009635  TIP3      8718            0.0000000000
     51070      8918  TIP3      H2            -35.5562109968       16.5954474032      -31.5952757175  TIP3      8718            0.0000000000
     51071      8919  TIP3      OH2           -36.1875637424       34.3642047458      -49.0638278465  TIP3      8719            0.0000000000
     51072      8919  TIP3      H1            -36.7721200493       34.3894201862      -48.3063474588  TIP3      8719            0.0000000000
     51073      8919  TIP3      H2            -35.7031497144       33.5374948560      -49.0406956393  TIP3      8719            0.0000000000
     51074      8920  TIP3      OH2           -26.6936794019       16.7689148262      -31.8216538711  TIP3      8720            0.0000000000
     51075      8920  TIP3      H1            -26.7163495445       16.2068258179      -31.0105333547  TIP3      8720            0.0000000000
     51076      8920  TIP3      H2            -25.8468933368       16.5064161145      -32.2105669465  TIP3      8720            0.0000000000
     51077      8921  TIP3      OH2           -23.5370130902       32.7436532205      -33.2020739621  TIP3      8721            0.0000000000
     51078      8921  TIP3      H1            -24.3440500125       32.6050559802      -33.7530424237  TIP3      8721            0.0000000000
     51079      8921  TIP3      H2            -23.6791395553       33.6978605099      -33.0026149905  TIP3      8721            0.0000000000
     51080      8922  TIP3      OH2            -9.1037754360       26.6269285912      -43.2442784089  TIP3      8722            0.0000000000
     51081      8922  TIP3      H1             -9.1215306479       27.6072398966      -43.2678367652  TIP3      8722            0.0000000000
     51082      8922  TIP3      H2             -9.8383615379       26.3918915589      -43.8330840650  TIP3      8722            0.0000000000
     51083      8923  TIP3      OH2           -10.2507011081       25.8780286208      -39.7267358326  TIP3      8723            0.0000000000
     51084      8923  TIP3      H1            -10.2665733324       25.2277508409      -39.0104842822  TIP3      8723            0.0000000000
     51085      8923  TIP3      H2            -10.6008040378       25.3692607661      -40.4780341750  TIP3      8723            0.0000000000
     51086      8924  TIP3      OH2           -17.8998000661       25.5560588514      -38.1771706649  TIP3      8724            0.0000000000
     51087      8924  TIP3      H1            -17.8159345683       24.8661735061      -37.4857987635  TIP3      8724            0.0000000000
     51088      8924  TIP3      H2            -17.1489680449       26.1248994714      -37.9538723428  TIP3      8724            0.0000000000
     51089      8925  TIP3      OH2            -6.5673648070       28.8265340373      -41.4440233225  TIP3      8725            0.0000000000
     51090      8925  TIP3      H1             -6.9803552760       28.1096423497      -40.9529208911  TIP3      8725            0.0000000000
     51091      8925  TIP3      H2             -6.5414256570       29.5347820513      -40.7740411440  TIP3      8725            0.0000000000
     51092      8926  TIP3      OH2           -16.9734452474       30.0032809068      -39.6779097055  TIP3      8726            0.0000000000
     51093      8926  TIP3      H1            -17.2823446136       29.1330428527      -39.9942363485  TIP3      8726            0.0000000000
     51094      8926  TIP3      H2            -16.0178879241       29.8210356211      -39.6326490933  TIP3      8726            0.0000000000
     51095      8927  TIP3      OH2           -20.3412180461       23.5551261488      -44.1865492260  TIP3      8727            0.0000000000
     51096      8927  TIP3      H1            -20.7693058716       24.4292274127      -44.2454633009  TIP3      8727            0.0000000000
     51097      8927  TIP3      H2            -20.8946768541       23.0192066316      -44.7689078345  TIP3      8727            0.0000000000
     51098      8928  TIP3      OH2           -19.6214143739       25.7844985294      -42.0352473083  TIP3      8728            0.0000000000
     51099      8928  TIP3      H1            -19.3453082102       24.9628435428      -41.5871124521  TIP3      8728            0.0000000000
     51100      8928  TIP3      H2            -18.9296863718       25.8917730877      -42.7056416961  TIP3      8728            0.0000000000
     51101      8929  TIP3      OH2            -9.4609092793       33.9748847432      -41.2063960843  TIP3      8729            0.0000000000
     51102      8929  TIP3      H1             -8.8007217762       33.2963291835      -41.4932261510  TIP3      8729            0.0000000000
     51103      8929  TIP3      H2             -9.6641927262       33.6434788471      -40.3331464295  TIP3      8729            0.0000000000
     51104      8930  TIP3      OH2           -11.8765240602       28.2741563740      -39.2542449494  TIP3      8730            0.0000000000
     51105      8930  TIP3      H1            -11.5392481310       27.6506965811      -39.9149224625  TIP3      8730            0.0000000000
     51106      8930  TIP3      H2            -11.0647372870       28.4349493887      -38.7420128580  TIP3      8730            0.0000000000
     51107      8931  TIP3      OH2            -3.2848756200       19.9424390068      -38.5358375957  TIP3      8731            0.0000000000
     51108      8931  TIP3      H1             -3.1037640561       20.5257385442      -37.7673587835  TIP3      8731            0.0000000000
     51109      8931  TIP3      H2             -2.7118311591       20.3592549972      -39.1952598730  TIP3      8731            0.0000000000
     51110      8932  TIP3      OH2            -8.7089654981       22.7460725306      -38.9423090559  TIP3      8732            0.0000000000
     51111      8932  TIP3      H1             -8.5403355174       21.7873404871      -38.9372188512  TIP3      8732            0.0000000000
     51112      8932  TIP3      H2             -8.8118416842       22.8855176553      -39.9035826111  TIP3      8732            0.0000000000
     51113      8933  TIP3      OH2           -15.5960660055       20.8357454911      -41.7294795973  TIP3      8733            0.0000000000
     51114      8933  TIP3      H1            -15.4872708622       21.6697585967      -42.2230308588  TIP3      8733            0.0000000000
     51115      8933  TIP3      H2            -15.9937612083       20.2619107336      -42.4191692020  TIP3      8733            0.0000000000
     51116      8934  TIP3      OH2            -7.8557142974       20.9164301141      -43.3590049332  TIP3      8734            0.0000000000
     51117      8934  TIP3      H1             -7.2060909847       20.6017016041      -42.6886801966  TIP3      8734            0.0000000000
     51118      8934  TIP3      H2             -7.2910137847       21.4869654631      -43.9052336430  TIP3      8734            0.0000000000
     51119      8935  TIP3      OH2           -18.9731772070       23.2473681612      -40.9944672040  TIP3      8735            0.0000000000
     51120      8935  TIP3      H1            -18.3023727313       22.7031498472      -40.5393821343  TIP3      8735            0.0000000000
     51121      8935  TIP3      H2            -18.8650060458       22.9316950771      -41.9056652770  TIP3      8735            0.0000000000
     51122      8936  TIP3      OH2           -13.8136771049       24.8017365008      -41.6715557289  TIP3      8736            0.0000000000
     51123      8936  TIP3      H1            -13.1413858004       24.2205483787      -41.2747784776  TIP3      8736            0.0000000000
     51124      8936  TIP3      H2            -14.3275894305       24.1453813446      -42.1821383529  TIP3      8736            0.0000000000
     51125      8937  TIP3      OH2            -2.8426133931       21.3405678143      -36.2556426478  TIP3      8737            0.0000000000
     51126      8937  TIP3      H1             -3.4439490583       22.1095456297      -36.3691708222  TIP3      8737            0.0000000000
     51127      8937  TIP3      H2             -2.8072463664       21.2652509848      -35.2953360180  TIP3      8737            0.0000000000
     51128      8938  TIP3      OH2           -16.6813955374       19.7349547746      -37.6927529188  TIP3      8738            0.0000000000
     51129      8938  TIP3      H1            -16.9672950075       20.3069770523      -38.4361079639  TIP3      8738            0.0000000000
     51130      8938  TIP3      H2            -17.3554064101       19.9652540889      -37.0110264960  TIP3      8738            0.0000000000
     51131      8939  TIP3      OH2            -9.4081288809       29.2050654440      -44.1425931383  TIP3      8739            0.0000000000
     51132      8939  TIP3      H1             -9.6826999289       28.9264398625      -45.0290578536  TIP3      8739            0.0000000000
     51133      8939  TIP3      H2             -9.7048779193       30.1438538300      -44.1009641755  TIP3      8739            0.0000000000
     51134      8940  TIP3      OH2           -14.1749568773       27.3778535216      -37.4511322385  TIP3      8740            0.0000000000
     51135      8940  TIP3      H1            -14.8776489556       28.0232426647      -37.2278755214  TIP3      8740            0.0000000000
     51136      8940  TIP3      H2            -13.4674302676       27.9752429869      -37.7420145872  TIP3      8740            0.0000000000
     51137      8941  TIP3      OH2            -6.0428992504       20.2618315631      -41.3663422893  TIP3      8741            0.0000000000
     51138      8941  TIP3      H1             -6.2666542240       19.4937805264      -40.8332414032  TIP3      8741            0.0000000000
     51139      8941  TIP3      H2             -5.3746100980       20.6978825344      -40.8108881379  TIP3      8741            0.0000000000
     51140      8942  TIP3      OH2           -17.1165957040       21.5907643806      -39.6509001844  TIP3      8742            0.0000000000
     51141      8942  TIP3      H1            -16.4889190449       22.2805266331      -39.3391328452  TIP3      8742            0.0000000000
     51142      8942  TIP3      H2            -16.6018705875       21.1818937398      -40.3909581194  TIP3      8742            0.0000000000
     51143      8943  TIP3      OH2           -15.7316380967       29.3845677187      -36.6247375998  TIP3      8743            0.0000000000
     51144      8943  TIP3      H1            -15.7761804080       30.2973460408      -36.9648756688  TIP3      8743            0.0000000000
     51145      8943  TIP3      H2            -16.6121586648       29.3064785355      -36.1825834714  TIP3      8743            0.0000000000
     51146      8944  TIP3      OH2           -19.6699958221       28.9803411529      -45.7999108854  TIP3      8744            0.0000000000
     51147      8944  TIP3      H1            -19.8937892746       29.2926673175      -46.6984509671  TIP3      8744            0.0000000000
     51148      8944  TIP3      H2            -19.5843107380       29.8225950600      -45.3112904701  TIP3      8744            0.0000000000
     51149      8945  TIP3      OH2            -6.0379245323       30.6638231687      -39.0772946712  TIP3      8745            0.0000000000
     51150      8945  TIP3      H1             -7.0059229804       30.7770671897      -38.9581427685  TIP3      8745            0.0000000000
     51151      8945  TIP3      H2             -5.7675361351       31.5799694138      -39.2805621600  TIP3      8745            0.0000000000
     51152      8946  TIP3      OH2            -5.7157415085       18.9460834796      -37.6887261492  TIP3      8746            0.0000000000
     51153      8946  TIP3      H1             -6.4376701212       19.5805805332      -37.7827132966  TIP3      8746            0.0000000000
     51154      8946  TIP3      H2             -4.9996227422       19.3651686933      -38.2112916508  TIP3      8746            0.0000000000
     51155      8947  TIP3      OH2           -12.7500939743       17.0693587123      -40.2226752340  TIP3      8747            0.0000000000
     51156      8947  TIP3      H1            -12.8941959596       16.1059146063      -40.2998043201  TIP3      8747            0.0000000000
     51157      8947  TIP3      H2            -13.6284432246       17.3746187454      -39.9163514075  TIP3      8747            0.0000000000
     51158      8948  TIP3      OH2            -7.7650472534       32.4525024207      -42.4706741235  TIP3      8748            0.0000000000
     51159      8948  TIP3      H1             -7.3515149243       31.7332946763      -42.9943542211  TIP3      8748            0.0000000000
     51160      8948  TIP3      H2             -7.3403241601       33.2457536558      -42.8691011240  TIP3      8748            0.0000000000
     51161      8949  TIP3      OH2            -6.5676698843       30.3684295032      -43.9521012642  TIP3      8749            0.0000000000
     51162      8949  TIP3      H1             -6.8561589775       29.6829148741      -44.5806562751  TIP3      8749            0.0000000000
     51163      8949  TIP3      H2             -6.5337561966       29.8671106741      -43.1195342531  TIP3      8749            0.0000000000
     51164      8950  TIP3      OH2            -4.9510984977       28.9739638949      -35.4779502804  TIP3      8750            0.0000000000
     51165      8950  TIP3      H1             -4.8024161313       28.3177677607      -36.1946489245  TIP3      8750            0.0000000000
     51166      8950  TIP3      H2             -4.7417798732       29.8139563153      -35.9243641256  TIP3      8750            0.0000000000
     51167      8951  TIP3      OH2           -10.4647166847       25.8919132469      -45.7154770133  TIP3      8751            0.0000000000
     51168      8951  TIP3      H1            -11.1572999502       26.4727420045      -46.0909889997  TIP3      8751            0.0000000000
     51169      8951  TIP3      H2             -9.7465212221       25.9633649521      -46.3738044393  TIP3      8751            0.0000000000
     51170      8952  TIP3      OH2           -10.3508136907       24.3573139653      -48.6770890240  TIP3      8752            0.0000000000
     51171      8952  TIP3      H1             -9.6327045395       24.3938034632      -48.0168350322  TIP3      8752            0.0000000000
     51172      8952  TIP3      H2            -10.0173802669       23.6580259404      -49.2684334059  TIP3      8752            0.0000000000
     51173      8953  TIP3      OH2            -3.0609728161       25.2842573240      -37.4345450396  TIP3      8753            0.0000000000
     51174      8953  TIP3      H1             -3.7183364760       26.0084250692      -37.3965588754  TIP3      8753            0.0000000000
     51175      8953  TIP3      H2             -2.5652135792       25.5171798911      -38.2406100411  TIP3      8753            0.0000000000
     51176      8954  TIP3      OH2            -7.0098168327       26.0812981067      -44.7723164714  TIP3      8754            0.0000000000
     51177      8954  TIP3      H1             -7.7574469338       26.3153535648      -44.1714850005  TIP3      8754            0.0000000000
     51178      8954  TIP3      H2             -6.5304002435       25.4025546599      -44.2655771658  TIP3      8754            0.0000000000
     51179      8955  TIP3      OH2            -7.0733229937       24.2356128812      -35.6670430495  TIP3      8755            0.0000000000
     51180      8955  TIP3      H1             -7.0660588954       25.0561671420      -35.1467201126  TIP3      8755            0.0000000000
     51181      8955  TIP3      H2             -7.7024296485       24.5267787702      -36.3597310697  TIP3      8755            0.0000000000
     51182      8956  TIP3      OH2           -15.3935367819       26.7276926873      -42.8765009510  TIP3      8756            0.0000000000
     51183      8956  TIP3      H1            -15.7110634294       26.3498464977      -43.7340018614  TIP3      8756            0.0000000000
     51184      8956  TIP3      H2            -14.7776488258       26.0364190628      -42.5452849096  TIP3      8756            0.0000000000
     51185      8957  TIP3      OH2           -14.0712851423       30.1124665059      -40.1963947884  TIP3      8757            0.0000000000
     51186      8957  TIP3      H1            -14.0766304919       29.5899320701      -41.0070522023  TIP3      8757            0.0000000000
     51187      8957  TIP3      H2            -13.2883802703       29.7560876700      -39.7377071096  TIP3      8757            0.0000000000
     51188      8958  TIP3      OH2           -15.0634918374       25.4763168393      -39.2125392393  TIP3      8758            0.0000000000
     51189      8958  TIP3      H1            -14.5155118231       25.5737027270      -40.0160171829  TIP3      8758            0.0000000000
     51190      8958  TIP3      H2            -14.6699930031       26.1415561578      -38.6050033494  TIP3      8758            0.0000000000
     51191      8959  TIP3      OH2            -8.6413785347       31.0508374441      -38.5036110258  TIP3      8759            0.0000000000
     51192      8959  TIP3      H1             -8.9285876653       31.6841372005      -37.8401382698  TIP3      8759            0.0000000000
     51193      8959  TIP3      H2             -8.8986677804       30.1963215791      -38.0848160489  TIP3      8759            0.0000000000
     51194      8960  TIP3      OH2           -14.1089686551       29.9120364014      -34.5176281692  TIP3      8760            0.0000000000
     51195      8960  TIP3      H1            -14.5203604763       30.6596764594      -34.0358279130  TIP3      8760            0.0000000000
     51196      8960  TIP3      H2            -14.7805820398       29.7080391262      -35.2143086051  TIP3      8760            0.0000000000
     51197      8961  TIP3      OH2            -8.1664783661       25.2808433895      -47.1150532819  TIP3      8761            0.0000000000
     51198      8961  TIP3      H1             -7.5889940150       25.4515792184      -46.3331039029  TIP3      8761            0.0000000000
     51199      8961  TIP3      H2             -7.6796373748       25.7520568295      -47.8352060852  TIP3      8761            0.0000000000
     51200      8962  TIP3      OH2           -17.1657378916       26.0667870738      -35.3644066869  TIP3      8762            0.0000000000
     51201      8962  TIP3      H1            -17.1115363215       26.7359775628      -34.6582704853  TIP3      8762            0.0000000000
     51202      8962  TIP3      H2            -18.1087226741       26.1537192094      -35.5713274691  TIP3      8762            0.0000000000
     51203      8963  TIP3      OH2           -10.4009242399       32.0045886352      -43.6723412821  TIP3      8763            0.0000000000
     51204      8963  TIP3      H1             -9.9851820285       32.3053844855      -42.8544541407  TIP3      8763            0.0000000000
     51205      8963  TIP3      H2            -10.9788006990       32.7436125239      -43.8887576069  TIP3      8763            0.0000000000
     51206      8964  TIP3      OH2           -15.8736941173       31.9404475016      -33.7694898130  TIP3      8764            0.0000000000
     51207      8964  TIP3      H1            -15.9083217404       31.8412884424      -34.7379844230  TIP3      8764            0.0000000000
     51208      8964  TIP3      H2            -16.8065292975       31.8096009025      -33.5253865355  TIP3      8764            0.0000000000
     51209      8965  TIP3      OH2            -4.3852643768       16.9847136632      -47.2708643954  TIP3      8765            0.0000000000
     51210      8965  TIP3      H1             -5.3288563018       17.0846653678      -46.9921876324  TIP3      8765            0.0000000000
     51211      8965  TIP3      H2             -4.2193097901       17.8564098933      -47.6679341294  TIP3      8765            0.0000000000
     51212      8966  TIP3      OH2           -16.4392907547       25.7540738675      -45.2305978826  TIP3      8766            0.0000000000
     51213      8966  TIP3      H1            -16.7175133995       26.5233462235      -45.7707557047  TIP3      8766            0.0000000000
     51214      8966  TIP3      H2            -17.0728367125       25.0781108512      -45.4795749468  TIP3      8766            0.0000000000
     51215      8967  TIP3      OH2            -3.3223783428       31.3823658710      -48.7518754765  TIP3      8767            0.0000000000
     51216      8967  TIP3      H1             -3.1506054518       32.3333861909      -48.6738132150  TIP3      8767            0.0000000000
     51217      8967  TIP3      H2             -2.4317425869       31.0069748468      -48.8590789250  TIP3      8767            0.0000000000
     51218      8968  TIP3      OH2           -20.3357061161       28.1799720336      -36.3615860375  TIP3      8768            0.0000000000
     51219      8968  TIP3      H1            -20.7757825778       28.0987142254      -37.2241324690  TIP3      8768            0.0000000000
     51220      8968  TIP3      H2            -20.2494840257       27.2323940034      -36.1452373815  TIP3      8768            0.0000000000
     51221      8969  TIP3      OH2           -20.5673656902       30.9273298783      -39.6073687284  TIP3      8769            0.0000000000
     51222      8969  TIP3      H1            -19.6098435543       30.8041851815      -39.6228045185  TIP3      8769            0.0000000000
     51223      8969  TIP3      H2            -20.6505609005       31.7343390801      -39.0843755833  TIP3      8769            0.0000000000
     51224      8970  TIP3      OH2            -2.3372336003       31.6106611833      -33.8957502350  TIP3      8770            0.0000000000
     51225      8970  TIP3      H1             -2.4553256224       30.6524644459      -33.9221442796  TIP3      8770            0.0000000000
     51226      8970  TIP3      H2             -3.2083407868       31.8659991102      -33.5097120442  TIP3      8770            0.0000000000
     51227      8971  TIP3      OH2           -11.3680675666       31.1646989828      -35.0355648860  TIP3      8771            0.0000000000
     51228      8971  TIP3      H1            -11.3145299645       32.0055970562      -34.5250627907  TIP3      8771            0.0000000000
     51229      8971  TIP3      H2            -12.2344323565       30.8000518534      -34.7786567176  TIP3      8771            0.0000000000
     51230      8972  TIP3      OH2           -10.9419774640       34.8948084179      -45.2460824755  TIP3      8772            0.0000000000
     51231      8972  TIP3      H1            -11.0107107700       34.8257748036      -46.2101434478  TIP3      8772            0.0000000000
     51232      8972  TIP3      H2            -10.9250565574       35.8501753107      -45.0775056001  TIP3      8772            0.0000000000
     51233      8973  TIP3      OH2           -17.3007183973       33.7972023006      -43.3890319426  TIP3      8773            0.0000000000
     51234      8973  TIP3      H1            -17.1454699529       33.3627875372      -42.5200193639  TIP3      8773            0.0000000000
     51235      8973  TIP3      H2            -18.1375285566       33.3785574794      -43.6469977531  TIP3      8773            0.0000000000
     51236      8974  TIP3      OH2            -7.9938868229       34.1756953139      -48.2075403939  TIP3      8774            0.0000000000
     51237      8974  TIP3      H1             -7.5011854642       33.4366364962      -48.6542646679  TIP3      8774            0.0000000000
     51238      8974  TIP3      H2             -7.8479870130       33.8770661604      -47.2977686732  TIP3      8774            0.0000000000
     51239      8975  TIP3      OH2            -8.1961107160       34.0575874661      -45.4440751761  TIP3      8775            0.0000000000
     51240      8975  TIP3      H1             -9.1541394185       34.1325155521      -45.2810675862  TIP3      8775            0.0000000000
     51241      8975  TIP3      H2             -7.9588171977       33.2953447088      -44.8992026607  TIP3      8775            0.0000000000
     51242      8976  TIP3      OH2            -5.1852538629       23.0879438353      -33.4275830138  TIP3      8776            0.0000000000
     51243      8976  TIP3      H1             -5.6620033205       23.5384912456      -34.1436171086  TIP3      8776            0.0000000000
     51244      8976  TIP3      H2             -5.2009211844       22.1684044084      -33.7322571761  TIP3      8776            0.0000000000
     51245      8977  TIP3      OH2           -18.0755900194       29.5334071131      -35.3974535463  TIP3      8777            0.0000000000
     51246      8977  TIP3      H1            -17.8196827465       29.1120863090      -34.5463944699  TIP3      8777            0.0000000000
     51247      8977  TIP3      H2            -18.9101091011       29.0866241294      -35.6491142037  TIP3      8777            0.0000000000
     51248      8978  TIP3      OH2           -15.3637009952       17.9725563950      -39.4730956101  TIP3      8778            0.0000000000
     51249      8978  TIP3      H1            -16.2663505143       17.8446001531      -39.8393751211  TIP3      8778            0.0000000000
     51250      8978  TIP3      H2            -15.4995973326       18.8022412831      -38.9860827473  TIP3      8778            0.0000000000
     51251      8979  TIP3      OH2           -10.7203260874       17.6363071562      -36.1128783934  TIP3      8779            0.0000000000
     51252      8979  TIP3      H1            -10.3285684698       17.2139038649      -35.3256786623  TIP3      8779            0.0000000000
     51253      8979  TIP3      H2            -11.6925611460       17.5224079572      -35.9657049211  TIP3      8779            0.0000000000
     51254      8980  TIP3      OH2            -7.4334758836       21.4864742756      -35.2089663152  TIP3      8780            0.0000000000
     51255      8980  TIP3      H1             -7.9993453212       21.2704588982      -34.4287838843  TIP3      8780            0.0000000000
     51256      8980  TIP3      H2             -7.6188054433       22.4135733634      -35.4377718617  TIP3      8780            0.0000000000
     51257      8981  TIP3      OH2            -6.4343524257       26.1890566079      -48.9175646089  TIP3      8781            0.0000000000
     51258      8981  TIP3      H1             -6.5744639321       26.0602674917      -49.8707540418  TIP3      8781            0.0000000000
     51259      8981  TIP3      H2             -5.6639301494       26.7732914652      -49.0557979354  TIP3      8781            0.0000000000
     51260      8982  TIP3      OH2           -11.0487775669       20.2402420703      -48.7662984137  TIP3      8782            0.0000000000
     51261      8982  TIP3      H1            -11.3981585401       20.1610070071      -47.8564088127  TIP3      8782            0.0000000000
     51262      8982  TIP3      H2            -11.3534877168       19.3852383871      -49.0990703015  TIP3      8782            0.0000000000
     51263      8983  TIP3      OH2           -15.2603265715       22.9499478521      -38.2075453346  TIP3      8783            0.0000000000
     51264      8983  TIP3      H1            -16.0025851564       22.9378929099      -37.5783249015  TIP3      8783            0.0000000000
     51265      8983  TIP3      H2            -15.3107522443       23.8547323577      -38.5908462685  TIP3      8783            0.0000000000
     51266      8984  TIP3      OH2           -15.3027228074       23.0552947680      -43.3516042243  TIP3      8784            0.0000000000
     51267      8984  TIP3      H1            -16.2422586713       22.8089891810      -43.4872715376  TIP3      8784            0.0000000000
     51268      8984  TIP3      H2            -14.9252123834       22.7725968641      -44.2099362507  TIP3      8784            0.0000000000
     51269      8985  TIP3      OH2            -9.7886903950       23.5663622228      -44.6040334086  TIP3      8785            0.0000000000
     51270      8985  TIP3      H1            -10.1683046041       24.4010374323      -44.9589848849  TIP3      8785            0.0000000000
     51271      8985  TIP3      H2             -9.0806106236       23.3939749729      -45.2500222059  TIP3      8785            0.0000000000
     51272      8986  TIP3      OH2           -10.7291846096       23.7745497034      -33.1487329257  TIP3      8786            0.0000000000
     51273      8986  TIP3      H1            -11.2538967905       22.9987307734      -32.8378349724  TIP3      8786            0.0000000000
     51274      8986  TIP3      H2             -9.8913584715       23.6548815447      -32.6716636699  TIP3      8786            0.0000000000
     51275      8987  TIP3      OH2            -8.7429584899       23.0505987938      -41.7393458620  TIP3      8787            0.0000000000
     51276      8987  TIP3      H1             -9.0321950782       23.6193553378      -42.4735008667  TIP3      8787            0.0000000000
     51277      8987  TIP3      H2             -8.6528524919       22.2053080872      -42.2213532289  TIP3      8787            0.0000000000
     51278      8988  TIP3      OH2           -17.6409527875       23.1931357137      -36.5405724390  TIP3      8788            0.0000000000
     51279      8988  TIP3      H1            -17.5565362052       23.6020438575      -35.6617885635  TIP3      8788            0.0000000000
     51280      8988  TIP3      H2            -18.0810352169       22.3550968136      -36.3276461935  TIP3      8788            0.0000000000
     51281      8989  TIP3      OH2           -14.2404901505       20.5778923549      -49.6770741794  TIP3      8789            0.0000000000
     51282      8989  TIP3      H1            -14.6843767049       20.1756085976      -48.9009348103  TIP3      8789            0.0000000000
     51283      8989  TIP3      H2            -14.9604036752       20.9737148639      -50.1733558920  TIP3      8789            0.0000000000
     51284      8990  TIP3      OH2           -20.9824972872       20.3023081788      -42.5468824383  TIP3      8790            0.0000000000
     51285      8990  TIP3      H1            -20.2981005779       20.2640830097      -41.8486886252  TIP3      8790            0.0000000000
     51286      8990  TIP3      H2            -20.5344715781       19.9307310526      -43.3302092954  TIP3      8790            0.0000000000
     51287      8991  TIP3      OH2           -19.7010641635       21.0228349742      -47.1772628067  TIP3      8791            0.0000000000
     51288      8991  TIP3      H1            -19.2056506283       21.6367051797      -47.7524333533  TIP3      8791            0.0000000000
     51289      8991  TIP3      H2            -20.3881102918       21.6520322581      -46.8755596053  TIP3      8791            0.0000000000
     51290      8992  TIP3      OH2            -9.5532298594       24.6377224341      -37.1871336998  TIP3      8792            0.0000000000
     51291      8992  TIP3      H1             -9.1707071914       23.9512390496      -37.7705725946  TIP3      8792            0.0000000000
     51292      8992  TIP3      H2            -10.0198634792       24.1107763348      -36.5141514389  TIP3      8792            0.0000000000
     51293      8993  TIP3      OH2           -12.7435600573       20.6222079110      -42.3511561776  TIP3      8793            0.0000000000
     51294      8993  TIP3      H1            -13.6765498345       20.6190244255      -42.0618901669  TIP3      8793            0.0000000000
     51295      8993  TIP3      H2            -12.2649672289       20.4441931184      -41.5271879311  TIP3      8793            0.0000000000
     51296      8994  TIP3      OH2           -17.9409486968       22.1654649927      -43.4790872269  TIP3      8794            0.0000000000
     51297      8994  TIP3      H1            -18.8233551993       22.3237511857      -43.8727181849  TIP3      8794            0.0000000000
     51298      8994  TIP3      H2            -17.6562098145       21.3326659736      -43.8908818032  TIP3      8794            0.0000000000
     51299      8995  TIP3      OH2           -14.2923044759       22.2191583277      -45.8371237058  TIP3      8795            0.0000000000
     51300      8995  TIP3      H1            -13.3348695115       22.3150746808      -45.6721362110  TIP3      8795            0.0000000000
     51301      8995  TIP3      H2            -14.5248136177       22.8819476225      -46.5170363582  TIP3      8795            0.0000000000
     51302      8996  TIP3      OH2            -8.3405773376       19.8514569868      -39.1126323474  TIP3      8796            0.0000000000
     51303      8996  TIP3      H1             -9.0263233818       19.9000152878      -38.4058187617  TIP3      8796            0.0000000000
     51304      8996  TIP3      H2             -8.8526739831       19.5952825396      -39.8935073967  TIP3      8796            0.0000000000
     51305      8997  TIP3      OH2           -15.5677411154       23.4084465503      -48.2442597088  TIP3      8797            0.0000000000
     51306      8997  TIP3      H1            -16.1628228774       23.0525046239      -48.9068997654  TIP3      8797            0.0000000000
     51307      8997  TIP3      H2            -14.7595834170       23.6108284403      -48.7392690186  TIP3      8797            0.0000000000
     51308      8998  TIP3      OH2            -5.1401482505       35.4683852509      -32.7849253437  TIP3      8798            0.0000000000
     51309      8998  TIP3      H1             -4.8927425049       35.8853254922      -33.6295818196  TIP3      8798            0.0000000000
     51310      8998  TIP3      H2             -4.4474550587       35.8557789664      -32.2258240093  TIP3      8798            0.0000000000
     51311      8999  TIP3      OH2           -17.4757953865       28.0010019775      -33.2183895329  TIP3      8799            0.0000000000
     51312      8999  TIP3      H1            -16.7414230284       28.1952005703      -32.6095166244  TIP3      8799            0.0000000000
     51313      8999  TIP3      H2            -18.2371313423       28.0235979366      -32.6034491520  TIP3      8799            0.0000000000
     51314      9000  TIP3      OH2           -11.4677200723       23.3734407396      -40.4566308180  TIP3      8800            0.0000000000
     51315      9000  TIP3      H1            -10.8663199509       22.8405733723      -40.9903972597  TIP3      8800            0.0000000000
     51316      9000  TIP3      H2            -11.6124281829       22.8232298979      -39.6749304949  TIP3      8800            0.0000000000
     51317      9001  TIP3      OH2           -16.4583958847       19.5156419106      -44.0189496850  TIP3      8801            0.0000000000
     51318      9001  TIP3      H1            -16.7673883879       18.5907250222      -44.0342750528  TIP3      8801            0.0000000000
     51319      9001  TIP3      H2            -15.6627736452       19.4494961231      -44.5596704362  TIP3      8801            0.0000000000
     51320      9002  TIP3      OH2           -12.8285557169       21.7002081064      -38.0422270722  TIP3      8802            0.0000000000
     51321      9002  TIP3      H1            -13.6520835623       22.2189287431      -37.9544824505  TIP3      8802            0.0000000000
     51322      9002  TIP3      H2            -12.2723810512       22.0528133449      -37.3212324250  TIP3      8802            0.0000000000
     51323      9003  TIP3      OH2           -12.2287595812       27.9169601087      -46.3331758171  TIP3      8803            0.0000000000
     51324      9003  TIP3      H1            -13.0342267449       27.4635661314      -46.6616026099  TIP3      8803            0.0000000000
     51325      9003  TIP3      H2            -12.4535762906       28.0529718585      -45.3900475140  TIP3      8803            0.0000000000
     51326      9004  TIP3      OH2            -5.0497533880       27.1270994679      -37.5414499852  TIP3      8804            0.0000000000
     51327      9004  TIP3      H1             -4.4887595469       27.6098412519      -38.1755973307  TIP3      8804            0.0000000000
     51328      9004  TIP3      H2             -5.9108414928       27.1698691786      -38.0043558741  TIP3      8804            0.0000000000
     51329      9005  TIP3      OH2            -8.4538792376       20.7617691662      -47.9982753575  TIP3      8805            0.0000000000
     51330      9005  TIP3      H1             -9.3679121671       20.9163679196      -48.2764551999  TIP3      8805            0.0000000000
     51331      9005  TIP3      H2             -8.0995224349       21.6578532844      -47.8356609534  TIP3      8805            0.0000000000
     51332      9006  TIP3      OH2           -10.7464384834       28.1954587855      -35.0990778110  TIP3      8806            0.0000000000
     51333      9006  TIP3      H1            -11.0969397325       27.7640862418      -34.3128658375  TIP3      8806            0.0000000000
     51334      9006  TIP3      H2            -11.0041805631       29.1160397794      -34.9915875037  TIP3      8806            0.0000000000
     51335      9007  TIP3      OH2            -7.6749491064       22.7003961084      -46.4860736193  TIP3      8807            0.0000000000
     51336      9007  TIP3      H1             -6.7845915301       22.5122386778      -46.1168387190  TIP3      8807            0.0000000000
     51337      9007  TIP3      H2             -7.5602086362       23.4881386962      -47.0395484871  TIP3      8807            0.0000000000
     51338      9008  TIP3      OH2           -17.1256788156       27.3218174751      -40.5407822240  TIP3      8808            0.0000000000
     51339      9008  TIP3      H1            -16.4468385024       27.2357589672      -41.2366871116  TIP3      8808            0.0000000000
     51340      9008  TIP3      H2            -17.0704581231       26.4609205068      -40.0884552168  TIP3      8808            0.0000000000
     51341      9009  TIP3      OH2           -10.0991578268       29.3968515961      -47.2959168712  TIP3      8809            0.0000000000
     51342      9009  TIP3      H1            -10.4765450247       30.2376784831      -46.9672405729  TIP3      8809            0.0000000000
     51343      9009  TIP3      H2            -10.8570021341       28.7951776344      -47.1292806542  TIP3      8809            0.0000000000
     51344      9010  TIP3      OH2           -20.1378989444       25.7289561675      -35.2781590370  TIP3      8810            0.0000000000
     51345      9010  TIP3      H1            -19.9695140687       25.2760668428      -34.4285517381  TIP3      8810            0.0000000000
     51346      9010  TIP3      H2            -20.7542818567       25.1176702489      -35.7237757692  TIP3      8810            0.0000000000
     51347      9011  TIP3      OH2           -13.1269594610       25.2815385043      -33.1083923532  TIP3      8811            0.0000000000
     51348      9011  TIP3      H1            -13.4468978013       24.9706799472      -33.9674800988  TIP3      8811            0.0000000000
     51349      9011  TIP3      H2            -12.2046321789       24.9553889348      -33.1094077951  TIP3      8811            0.0000000000
     51350      9012  TIP3      OH2            -8.4395355770       30.6167782801      -35.1503665707  TIP3      8812            0.0000000000
     51351      9012  TIP3      H1             -9.3647992306       30.7944904972      -35.3847199493  TIP3      8812            0.0000000000
     51352      9012  TIP3      H2             -8.4727414267       30.9111381228      -34.2200501626  TIP3      8812            0.0000000000
     51353      9013  TIP3      OH2            -2.7405284545       22.7971513924      -46.7280149910  TIP3      8813            0.0000000000
     51354      9013  TIP3      H1             -3.3222818204       22.5287337966      -47.4740131348  TIP3      8813            0.0000000000
     51355      9013  TIP3      H2             -2.6806012582       23.7417364710      -46.9883724448  TIP3      8813            0.0000000000
     51356      9014  TIP3      OH2            -2.7838164117       28.6536949696      -33.9620116713  TIP3      8814            0.0000000000
     51357      9014  TIP3      H1             -3.6765175519       28.8783474552      -34.3236671723  TIP3      8814            0.0000000000
     51358      9014  TIP3      H2             -2.2394595376       28.6053068559      -34.7753627474  TIP3      8814            0.0000000000
     51359      9015  TIP3      OH2            -4.4675344323       31.6005802344      -46.3620806810  TIP3      8815            0.0000000000
     51360      9015  TIP3      H1             -4.8651835136       30.7775136890      -46.0636317425  TIP3      8815            0.0000000000
     51361      9015  TIP3      H2             -4.1926114640       31.4003314857      -47.2768237979  TIP3      8815            0.0000000000
     51362      9016  TIP3      OH2            -7.2746750138       26.4402394667      -39.2595125627  TIP3      8816            0.0000000000
     51363      9016  TIP3      H1             -8.2147968139       26.2334394885      -39.3729774497  TIP3      8816            0.0000000000
     51364      9016  TIP3      H2             -6.8432607970       25.6824679266      -39.6978692250  TIP3      8816            0.0000000000
     51365      9017  TIP3      OH2           -14.7598469895       30.7654451155      -43.1543201481  TIP3      8817            0.0000000000
     51366      9017  TIP3      H1            -14.2605779453       31.5745748212      -43.3605899513  TIP3      8817            0.0000000000
     51367      9017  TIP3      H2            -15.6349547052       31.0037802616      -43.4852209732  TIP3      8817            0.0000000000
     51368      9018  TIP3      OH2           -18.9303098599       25.5666703706      -48.5618852829  TIP3      8818            0.0000000000
     51369      9018  TIP3      H1            -18.3915641097       26.2726444364      -48.1654677440  TIP3      8818            0.0000000000
     51370      9018  TIP3      H2            -19.8352892054       25.8869345175      -48.3432979011  TIP3      8818            0.0000000000
     51371      9019  TIP3      OH2           -13.3389172867       28.4340169682      -43.6378115789  TIP3      8819            0.0000000000
     51372      9019  TIP3      H1            -13.6582443998       29.3551371643      -43.5577246602  TIP3      8819            0.0000000000
     51373      9019  TIP3      H2            -14.0590063304       27.9431913303      -43.1946913927  TIP3      8819            0.0000000000
     51374      9020  TIP3      OH2           -12.8962819381       32.6233249932      -37.2263584944  TIP3      8820            0.0000000000
     51375      9020  TIP3      H1            -12.4318331710       33.4264582580      -37.5156881654  TIP3      8820            0.0000000000
     51376      9020  TIP3      H2            -12.2747828178       32.2793296841      -36.5577185178  TIP3      8820            0.0000000000
     51377      9021  TIP3      OH2           -14.6596149764       33.4199392375      -44.0590615989  TIP3      8821            0.0000000000
     51378      9021  TIP3      H1            -15.6252050584       33.5761593038      -43.9743347573  TIP3      8821            0.0000000000
     51379      9021  TIP3      H2            -14.2921542623       34.2710440893      -43.7536641821  TIP3      8821            0.0000000000
     51380      9022  TIP3      OH2            -9.3747470040       28.6138904798      -37.6159228294  TIP3      8822            0.0000000000
     51381      9022  TIP3      H1             -9.6913079495       28.4260053021      -36.7076558343  TIP3      8822            0.0000000000
     51382      9022  TIP3      H2             -8.7288102716       27.9083437877      -37.7812532940  TIP3      8822            0.0000000000
     51383      9023  TIP3      OH2            -7.1162714186       29.6546880436      -48.4256770375  TIP3      8823            0.0000000000
     51384      9023  TIP3      H1             -6.7797556756       29.1613208345      -47.6604678438  TIP3      8823            0.0000000000
     51385      9023  TIP3      H2             -8.0580892157       29.4654164965      -48.3479598476  TIP3      8823            0.0000000000
     51386      9024  TIP3      OH2            -6.5451450321       33.1774645131      -35.1322561620  TIP3      8824            0.0000000000
     51387      9024  TIP3      H1             -7.2465639723       32.6986456222      -35.6084596757  TIP3      8824            0.0000000000
     51388      9024  TIP3      H2             -6.3684978171       33.8940690221      -35.7790413975  TIP3      8824            0.0000000000
     51389      9025  TIP3      OH2            -2.5646307160       34.0953319193      -48.3112469930  TIP3      8825            0.0000000000
     51390      9025  TIP3      H1             -1.8601044365       34.7492896835      -48.4698961180  TIP3      8825            0.0000000000
     51391      9025  TIP3      H2             -3.2879716981       34.6794396460      -47.9742285726  TIP3      8825            0.0000000000
     51392      9026  TIP3      OH2           -18.4891244362       20.4550574261      -35.7370505680  TIP3      8826            0.0000000000
     51393      9026  TIP3      H1            -19.3956022613       20.8067878415      -35.7556737228  TIP3      8826            0.0000000000
     51394      9026  TIP3      H2            -18.5996551631       19.6092695911      -35.2739793632  TIP3      8826            0.0000000000
     51395      9027  TIP3      OH2            -6.2435571305       28.3375802009      -46.2735956693  TIP3      8827            0.0000000000
     51396      9027  TIP3      H1             -6.4822175576       27.5236050947      -45.7907597179  TIP3      8827            0.0000000000
     51397      9027  TIP3      H2             -5.2913677779       28.3735986740      -46.1057411304  TIP3      8827            0.0000000000
     51398      9028  TIP3      OH2           -18.8796388260       32.2339418482      -37.3162583408  TIP3      8828            0.0000000000
     51399      9028  TIP3      H1            -18.5701502147       31.3159623756      -37.3007700326  TIP3      8828            0.0000000000
     51400      9028  TIP3      H2            -18.5978997411       32.5401939622      -36.4489778946  TIP3      8828            0.0000000000
     51401      9029  TIP3      OH2           -14.1201606009       30.3123408330      -47.5825141344  TIP3      8829            0.0000000000
     51402      9029  TIP3      H1            -13.8623714136       29.7733226743      -46.8280566973  TIP3      8829            0.0000000000
     51403      9029  TIP3      H2            -14.0655710562       31.2310823608      -47.2507831998  TIP3      8829            0.0000000000
     51404      9030  TIP3      OH2           -17.6153810115       27.5206598511      -47.1179144114  TIP3      8830            0.0000000000
     51405      9030  TIP3      H1            -18.3027918558       27.9365350447      -46.5590967320  TIP3      8830            0.0000000000
     51406      9030  TIP3      H2            -17.0800887913       28.3032476763      -47.3562616035  TIP3      8830            0.0000000000
     51407      9031  TIP3      OH2            -9.7570692636       20.2284704548      -36.7686319621  TIP3      8831            0.0000000000
     51408      9031  TIP3      H1             -9.0408989024       20.2888135389      -36.1273593204  TIP3      8831            0.0000000000
     51409      9031  TIP3      H2            -10.1401050616       19.3521036020      -36.5646486063  TIP3      8831            0.0000000000
     51410      9032  TIP3      OH2            -9.0361715540       19.7937059329      -45.6389648338  TIP3      8832            0.0000000000
     51411      9032  TIP3      H1             -8.7885443700       20.2483646077      -46.4737845373  TIP3      8832            0.0000000000
     51412      9032  TIP3      H2             -8.4304388376       20.2383016081      -45.0388993762  TIP3      8832            0.0000000000
     51413      9033  TIP3      OH2           -11.3165696699       31.9581792722      -46.8960548690  TIP3      8833            0.0000000000
     51414      9033  TIP3      H1            -12.1403232110       32.4643597583      -46.7909342399  TIP3      8833            0.0000000000
     51415      9033  TIP3      H2            -10.7987719891       32.5125469901      -47.4888866850  TIP3      8833            0.0000000000
     51416      9034  TIP3      OH2           -11.7743597883       21.5417785186      -44.8625680780  TIP3      8834            0.0000000000
     51417      9034  TIP3      H1            -11.0001031063       22.1380009356      -44.8306158483  TIP3      8834            0.0000000000
     51418      9034  TIP3      H2            -12.0419303849       21.4293939627      -43.9312497906  TIP3      8834            0.0000000000
     51419      9035  TIP3      OH2           -11.2297791549       22.5744606041      -35.6710899161  TIP3      8835            0.0000000000
     51420      9035  TIP3      H1            -11.1547663881       23.1314641721      -34.8742528584  TIP3      8835            0.0000000000
     51421      9035  TIP3      H2            -10.5659095963       21.8797354651      -35.5783872459  TIP3      8835            0.0000000000
     51422      9036  TIP3      OH2           -10.9310640750       18.6004604496      -43.9821733006  TIP3      8836            0.0000000000
     51423      9036  TIP3      H1            -11.2556702869       19.2608334965      -43.3451582736  TIP3      8836            0.0000000000
     51424      9036  TIP3      H2            -10.2382970968       19.1484215058      -44.4281502488  TIP3      8836            0.0000000000
     51425      9037  TIP3      OH2           -13.9538609813       33.0208007453      -46.8182213530  TIP3      8837            0.0000000000
     51426      9037  TIP3      H1            -13.7770212647       33.8386975265      -47.3401455037  TIP3      8837            0.0000000000
     51427      9037  TIP3      H2            -14.2122823523       33.3700218550      -45.9435985203  TIP3      8837            0.0000000000
     51428      9038  TIP3      OH2           -15.2704540531       19.7453298611      -47.2313118434  TIP3      8838            0.0000000000
     51429      9038  TIP3      H1            -15.3162600508       20.6324321076      -46.8352186523  TIP3      8838            0.0000000000
     51430      9038  TIP3      H2            -14.3697001543       19.4729677257      -46.9791112677  TIP3      8838            0.0000000000
     51431      9039  TIP3      OH2            -5.0528861901       20.4422872607      -34.8292026428  TIP3      8839            0.0000000000
     51432      9039  TIP3      H1             -5.9795582865       20.7596698900      -34.9580781422  TIP3      8839            0.0000000000
     51433      9039  TIP3      H2             -4.7516568007       20.4285728846      -35.7529198195  TIP3      8839            0.0000000000
     51434      9040  TIP3      OH2            -6.4342233307       24.2338794430      -40.8171257073  TIP3      8840            0.0000000000
     51435      9040  TIP3      H1             -7.2580742538       23.7866609953      -41.0977125249  TIP3      8840            0.0000000000
     51436      9040  TIP3      H2             -5.9554678385       23.5441866841      -40.3060001560  TIP3      8840            0.0000000000
     51437      9041  TIP3      OH2           -16.9955591035       30.1077214629      -48.1133513150  TIP3      8841            0.0000000000
     51438      9041  TIP3      H1            -16.3617828059       30.8035298810      -47.9097598984  TIP3      8841            0.0000000000
     51439      9041  TIP3      H2            -16.5785447210       29.7380975136      -48.9215669425  TIP3      8841            0.0000000000
     51440      9042  TIP3      OH2           -18.6709322892       22.8319244118      -48.9568116524  TIP3      8842            0.0000000000
     51441      9042  TIP3      H1            -18.6823095617       23.8018402264      -48.8646875589  TIP3      8842            0.0000000000
     51442      9042  TIP3      H2            -19.5072043923       22.6319318598      -49.4160459346  TIP3      8842            0.0000000000
     51443      9043  TIP3      OH2            -5.3656206713       33.4628430574      -39.1478424941  TIP3      8843            0.0000000000
     51444      9043  TIP3      H1             -5.4644336336       34.1556358077      -39.8328523268  TIP3      8843            0.0000000000
     51445      9043  TIP3      H2             -4.4042592646       33.5376631319      -38.9722859462  TIP3      8843            0.0000000000
     51446      9044  TIP3      OH2           -17.8827738848       17.6128551735      -40.3412492017  TIP3      8844            0.0000000000
     51447      9044  TIP3      H1            -18.0726213462       17.6293987312      -41.3058949042  TIP3      8844            0.0000000000
     51448      9044  TIP3      H2            -18.2957179279       16.7594507508      -40.0905908563  TIP3      8844            0.0000000000
     51449      9045  TIP3      OH2           -18.9255881417       31.5334670813      -44.1993989325  TIP3      8845            0.0000000000
     51450      9045  TIP3      H1            -19.7836062576       31.9791531223      -44.2401017634  TIP3      8845            0.0000000000
     51451      9045  TIP3      H2            -18.4417698817       31.9943318462      -44.8926972673  TIP3      8845            0.0000000000
     51452      9046  TIP3      OH2           -19.7562590618       34.1777523498      -32.8896963975  TIP3      8846            0.0000000000
     51453      9046  TIP3      H1            -19.0787491387       34.0029437686      -32.2066447768  TIP3      8846            0.0000000000
     51454      9046  TIP3      H2            -20.0989845647       33.3132489861      -33.1592594327  TIP3      8846            0.0000000000
     51455      9047  TIP3      OH2           -15.0613381043       33.0783723950      -31.3111941935  TIP3      8847            0.0000000000
     51456      9047  TIP3      H1            -14.2906488419       32.6052824201      -30.9712795131  TIP3      8847            0.0000000000
     51457      9047  TIP3      H2            -15.0440811071       32.8271479041      -32.2547532322  TIP3      8847            0.0000000000
     51458      9048  TIP3      OH2           -10.9833115619       32.5569866571      -49.9834484632  TIP3      8848            0.0000000000
     51459      9048  TIP3      H1            -11.6068105699       31.9084176275      -49.6381463956  TIP3      8848            0.0000000000
     51460      9048  TIP3      H2            -10.1904136214       32.0240254915      -50.1151134713  TIP3      8848            0.0000000000
     51461      9049  TIP3      OH2            -8.5404454545       31.4892303345      -32.5563249181  TIP3      8849            0.0000000000
     51462      9049  TIP3      H1             -8.8536530017       30.6013157253      -32.2817761506  TIP3      8849            0.0000000000
     51463      9049  TIP3      H2             -7.7697321654       31.6070999387      -31.9654926276  TIP3      8849            0.0000000000
     51464      9050  TIP3      OH2            -6.7446714941       32.2483819668      -49.3095880923  TIP3      8850            0.0000000000
     51465      9050  TIP3      H1             -6.1885547348       31.5250091550      -48.9760412696  TIP3      8850            0.0000000000
     51466      9050  TIP3      H2             -6.0990854010       32.6948199981      -49.9298466056  TIP3      8850            0.0000000000
     51467      9051  TIP3      OH2           -19.8268013817       27.9856062724      -31.9165797473  TIP3      8851            0.0000000000
     51468      9051  TIP3      H1            -19.6381626914       27.0642581300      -32.1980769351  TIP3      8851            0.0000000000
     51469      9051  TIP3      H2            -20.5626501910       28.1905936377      -32.5165971564  TIP3      8851            0.0000000000
     51470      9052  TIP3      OH2           -15.3828673481       28.2453220335      -49.8072698182  TIP3      8852            0.0000000000
     51471      9052  TIP3      H1            -15.3019247832       27.4799398961      -49.2265592094  TIP3      8852            0.0000000000
     51472      9052  TIP3      H2            -14.7025351167       28.1439325180      -50.4812519720  TIP3      8852            0.0000000000
     51473      9053  TIP3      OH2           -13.0911426131       27.9534086088      -32.5356379083  TIP3      8853            0.0000000000
     51474      9053  TIP3      H1            -13.4309530674       28.2616643768      -33.3978646965  TIP3      8853            0.0000000000
     51475      9053  TIP3      H2            -13.0219462786       26.9735974743      -32.6412315337  TIP3      8853            0.0000000000
     51476      9054  TIP3      OH2            -7.3990120344       27.8047104424      -35.1408681730  TIP3      8854            0.0000000000
     51477      9054  TIP3      H1             -6.6105254726       28.3867243205      -35.2020843605  TIP3      8854            0.0000000000
     51478      9054  TIP3      H2             -8.0978475442       28.4736164305      -35.1060532092  TIP3      8854            0.0000000000
     51479      9055  TIP3      OH2           -18.8855739894       25.1869711424      -32.5382744036  TIP3      8855            0.0000000000
     51480      9055  TIP3      H1            -18.4728856566       24.3221812095      -32.6291972429  TIP3      8855            0.0000000000
     51481      9055  TIP3      H2            -19.1214493557       25.1879299176      -31.5974958796  TIP3      8855            0.0000000000
     51482      9056  TIP3      OH2           -14.2807282877       26.2982532499      -47.4928497607  TIP3      8856            0.0000000000
     51483      9056  TIP3      H1            -14.7560852669       25.7991485494      -46.8081897380  TIP3      8856            0.0000000000
     51484      9056  TIP3      H2            -13.9337270808       25.5819864707      -48.0690316645  TIP3      8856            0.0000000000
     51485      9057  TIP3      OH2           -14.9915205037       24.1251648149      -35.1865836121  TIP3      8857            0.0000000000
     51486      9057  TIP3      H1            -15.5873388564       24.8467685669      -34.9299077424  TIP3      8857            0.0000000000
     51487      9057  TIP3      H2            -14.5929621243       24.4937150556      -35.9933589225  TIP3      8857            0.0000000000
     51488      9058  TIP3      OH2           -13.0815913742       24.5334904277      -49.1620985445  TIP3      8858            0.0000000000
     51489      9058  TIP3      H1            -13.3152786385       24.4047908977      -50.0980322778  TIP3      8858            0.0000000000
     51490      9058  TIP3      H2            -12.1072241877       24.6083580017      -49.1397299339  TIP3      8858            0.0000000000
     51491      9059  TIP3      OH2            -9.9170827520       26.6971901670      -31.8464125719  TIP3      8859            0.0000000000
     51492      9059  TIP3      H1             -8.9606903963       26.6828944596      -31.9721439199  TIP3      8859            0.0000000000
     51493      9059  TIP3      H2            -10.0890854726       25.9296935321      -31.2777236227  TIP3      8859            0.0000000000
     51494      9060  TIP3      OH2            -4.0685157862       26.5907243186       50.2286571328  TIP3      8860            0.0000000000
     51495      9060  TIP3      H1             -4.0138879887       26.3604495339       49.3025515667  TIP3      8860            0.0000000000
     51496      9060  TIP3      H2             -3.8709518666       27.5574278287       50.1267845243  TIP3      8860            0.0000000000
     51497      9061  TIP3      OH2           -14.5928121033       21.5039850026      -34.1291661177  TIP3      8861            0.0000000000
     51498      9061  TIP3      H1            -14.4696180972       20.7962961654      -34.7884375367  TIP3      8861            0.0000000000
     51499      9061  TIP3      H2            -14.6311057036       22.3159805534      -34.6771863614  TIP3      8861            0.0000000000
     51500      9062  TIP3      OH2           -14.1811742329       19.8869639556      -36.5727968561  TIP3      8862            0.0000000000
     51501      9062  TIP3      H1            -13.6736655780       20.3523841113      -37.2800840942  TIP3      8862            0.0000000000
     51502      9062  TIP3      H2            -15.0752233519       19.8096716373      -36.9780082438  TIP3      8862            0.0000000000
     51503      9063  TIP3      OH2           -12.6428650560       25.3805302501      -36.3322384081  TIP3      8863            0.0000000000
     51504      9063  TIP3      H1            -11.8888855485       25.2124291821      -36.9031319756  TIP3      8863            0.0000000000
     51505      9063  TIP3      H2            -13.0094195825       26.2126927515      -36.6692889581  TIP3      8863            0.0000000000
     51506      9064  TIP3      OH2            -8.2455018305       23.1249219581      -31.3567423203  TIP3      8864            0.0000000000
     51507      9064  TIP3      H1             -8.0108498899       22.1913309020      -31.4600379683  TIP3      8864            0.0000000000
     51508      9064  TIP3      H2             -7.3814177730       23.5705308152      -31.3369069997  TIP3      8864            0.0000000000
     51509      9065  TIP3      OH2            -6.9082933826       25.9218763711      -33.2014283283  TIP3      8865            0.0000000000
     51510      9065  TIP3      H1             -7.1580924444       26.6430769504      -33.8194043882  TIP3      8865            0.0000000000
     51511      9065  TIP3      H2             -5.9485952912       25.8908360059      -33.3907296794  TIP3      8865            0.0000000000
     51512      9066  TIP3      OH2           -16.1208279164       22.7574251546      -32.2063125989  TIP3      8866            0.0000000000
     51513      9066  TIP3      H1            -16.8907535712       22.1829306610      -32.3759150885  TIP3      8866            0.0000000000
     51514      9066  TIP3      H2            -15.4695406321       22.3865052962      -32.8300931930  TIP3      8866            0.0000000000
     51515      9067  TIP3      OH2           -13.3925692919       17.3230707361      -36.1871154705  TIP3      8867            0.0000000000
     51516      9067  TIP3      H1            -13.5782161537       18.2850690321      -36.2820259446  TIP3      8867            0.0000000000
     51517      9067  TIP3      H2            -14.1419516722       16.9559517802      -36.6875578333  TIP3      8867            0.0000000000
     51518      9068  TIP3      OH2           -12.1241750086       21.6523860616      -32.5576683149  TIP3      8868            0.0000000000
     51519      9068  TIP3      H1            -12.4384779169       21.4201260235      -31.6619839827  TIP3      8868            0.0000000000
     51520      9068  TIP3      H2            -12.9055897918       21.4492371279      -33.0988051702  TIP3      8868            0.0000000000
     51521      9069  TIP3      OH2            -9.4010791379       20.7985624305      -33.4633871889  TIP3      8869            0.0000000000
     51522      9069  TIP3      H1            -10.3664437874       20.8510852058      -33.3570402512  TIP3      8869            0.0000000000
     51523      9069  TIP3      H2             -9.1384320898       20.1564244484      -32.7756255063  TIP3      8869            0.0000000000
     51524      9070  TIP3      OH2            -7.8204893985       19.4155111605      -31.5685822870  TIP3      8870            0.0000000000
     51525      9070  TIP3      H1             -7.8680651701       18.4376196437      -31.5363498735  TIP3      8870            0.0000000000
     51526      9070  TIP3      H2             -8.0679162007       19.7083617114      -30.6687915318  TIP3      8870            0.0000000000
     51527      9071  TIP3      OH2           -18.0541942917       20.6949710388      -32.4505381408  TIP3      8871            0.0000000000
     51528      9071  TIP3      H1            -17.7996179539       19.9602908325      -33.0358063886  TIP3      8871            0.0000000000
     51529      9071  TIP3      H2            -18.1360727428       20.2458325333      -31.5861619698  TIP3      8871            0.0000000000
     51530      9072  TIP3      OH2           -13.1789157412       16.7185905832      -33.4849185943  TIP3      8872            0.0000000000
     51531      9072  TIP3      H1            -12.4999618888       16.0146018693      -33.5007830481  TIP3      8872            0.0000000000
     51532      9072  TIP3      H2            -13.2943504102       16.8582833465      -34.4454938821  TIP3      8872            0.0000000000
     51533      9073  TIP3      OH2           -12.8169389190       18.3298448979      -31.3666286701  TIP3      8873            0.0000000000
     51534      9073  TIP3      H1            -12.9907658009       17.8242097036      -32.1992462170  TIP3      8873            0.0000000000
     51535      9073  TIP3      H2            -13.4160256980       19.0948730285      -31.4675465267  TIP3      8873            0.0000000000
     51536      9074  TIP3      OH2           -13.3431847837       35.2635329144      -48.2179581114  TIP3      8874            0.0000000000
     51537      9074  TIP3      H1            -12.3714467871       35.3547338077      -48.1377539354  TIP3      8874            0.0000000000
     51538      9074  TIP3      H2            -13.5519168140       35.8919343149      -48.9215732412  TIP3      8874            0.0000000000
     51539      9075  TIP3      OH2           -19.7035036711       29.8122751703      -48.6379681470  TIP3      8875            0.0000000000
     51540      9075  TIP3      H1            -18.7375599364       29.9130110323      -48.4967596015  TIP3      8875            0.0000000000
     51541      9075  TIP3      H2            -19.7181838995       29.2103872721      -49.3966478937  TIP3      8875            0.0000000000
     51542      9076  TIP3      OH2           -20.9825678453       35.2226477441      -43.7708088535  TIP3      8876            0.0000000000
     51543      9076  TIP3      H1            -21.7223441499       34.7508893344      -44.2224726192  TIP3      8876            0.0000000000
     51544      9076  TIP3      H2            -20.7376385771       34.5694846883      -43.0897759511  TIP3      8876            0.0000000000
     51545      9077  TIP3      OH2           -20.1922696879       33.3405283645      -41.8817151949  TIP3      8877            0.0000000000
     51546      9077  TIP3      H1            -20.5441556415       32.4581397384      -41.6899186960  TIP3      8877            0.0000000000
     51547      9077  TIP3      H2            -19.9664105682       33.6662227103      -40.9957577929  TIP3      8877            0.0000000000
     51548      9078  TIP3      OH2            -2.6556051585       34.1446883238      -38.9560963163  TIP3      8878            0.0000000000
     51549      9078  TIP3      H1             -2.6218326964       34.2922306148      -37.9949666870  TIP3      8878            0.0000000000
     51550      9078  TIP3      H2             -1.9454182211       34.7182187457      -39.2588655539  TIP3      8878            0.0000000000
     51551      9079  TIP3      OH2            -3.0503335066       33.7062515270      -36.0104223273  TIP3      8879            0.0000000000
     51552      9079  TIP3      H1             -3.5497151073       32.9522877467      -36.3867817988  TIP3      8879            0.0000000000
     51553      9079  TIP3      H2             -2.5840101063       33.2583740040      -35.2871263606  TIP3      8879            0.0000000000
     51554      9080  TIP3      OH2            -4.6383538420       29.4524773027      -31.3338225109  TIP3      8880            0.0000000000
     51555      9080  TIP3      H1             -5.5442247981       29.4245407361      -30.9714478992  TIP3      8880            0.0000000000
     51556      9080  TIP3      H2             -4.2647917867       30.2571944139      -30.9248121839  TIP3      8880            0.0000000000
     51557      9081  TIP3      OH2            -3.3236387713       27.7896945694      -45.8908460075  TIP3      8881            0.0000000000
     51558      9081  TIP3      H1             -2.4515835221       28.1737354991      -45.7121611896  TIP3      8881            0.0000000000
     51559      9081  TIP3      H2             -3.3312562033       27.0619839011      -45.2322641228  TIP3      8881            0.0000000000
     51560      9082  TIP3      OH2            -2.9642914411       25.8738327234      -44.0109282837  TIP3      8882            0.0000000000
     51561      9082  TIP3      H1             -3.7106388182       25.3520711505      -43.6366622219  TIP3      8882            0.0000000000
     51562      9082  TIP3      H2             -2.3645913269       25.9869922267      -43.2491205249  TIP3      8882            0.0000000000
     51563      9083  TIP3      OH2            -3.2047776037       28.5467500979      -39.0389178734  TIP3      8883            0.0000000000
     51564      9083  TIP3      H1             -2.3890727391       28.1720848884      -39.4150724746  TIP3      8883            0.0000000000
     51565      9083  TIP3      H2             -3.0598024660       29.5015900045      -39.2070153770  TIP3      8883            0.0000000000
     51566      9084  TIP3      OH2            -4.6491316842       31.4671057420      -36.7656682736  TIP3      8884            0.0000000000
     51567      9084  TIP3      H1             -5.3401429424       31.8014803747      -36.1749552598  TIP3      8884            0.0000000000
     51568      9084  TIP3      H2             -5.1942594958       31.0573602666      -37.4731648293  TIP3      8884            0.0000000000
     51569      9085  TIP3      OH2            -2.6295142878       25.7202982130      -47.6330353481  TIP3      8885            0.0000000000
     51570      9085  TIP3      H1             -3.2288932252       26.0252397239      -48.3516587751  TIP3      8885            0.0000000000
     51571      9085  TIP3      H2             -2.7634668374       26.4160568608      -46.9599506785  TIP3      8885            0.0000000000
     51572      9086  TIP3      OH2            -4.3321580445       22.9853334658      -48.7694207233  TIP3      8886            0.0000000000
     51573      9086  TIP3      H1             -4.1687463141       23.6052502458      -49.5105461715  TIP3      8886            0.0000000000
     51574      9086  TIP3      H2             -4.2835978535       22.1386713494      -49.2533576748  TIP3      8886            0.0000000000
     51575      9087  TIP3      OH2            -5.1371592094       24.3276714513      -43.4331492370  TIP3      8887            0.0000000000
     51576      9087  TIP3      H1             -5.2859805770       23.3739536330      -43.4862546839  TIP3      8887            0.0000000000
     51577      9087  TIP3      H2             -5.4671279633       24.5388205806      -42.5423413858  TIP3      8887            0.0000000000
     51578      9088  TIP3      OH2           -20.1338499895       26.4167987536      -39.3881126474  TIP3      8888            0.0000000000
     51579      9088  TIP3      H1            -19.9576634434       26.3343349944      -40.3515150535  TIP3      8888            0.0000000000
     51580      9088  TIP3      H2            -19.2403951746       26.2375408760      -39.0361328289  TIP3      8888            0.0000000000
     51581      9089  TIP3      OH2            -4.2792643272       26.2978829053      -33.7577161288  TIP3      8889            0.0000000000
     51582      9089  TIP3      H1             -3.6694058102       25.5408719767      -33.6268750843  TIP3      8889            0.0000000000
     51583      9089  TIP3      H2             -3.6742316711       27.0703088389      -33.7553027077  TIP3      8889            0.0000000000
     51584      9090  TIP3      OH2            -2.7775896958       24.1759167296      -33.1082339752  TIP3      8890            0.0000000000
     51585      9090  TIP3      H1             -3.6607916482       23.7775054200      -33.2625838896  TIP3      8890            0.0000000000
     51586      9090  TIP3      H2             -2.2077932128       23.3925665262      -33.1845271322  TIP3      8890            0.0000000000
     51587      9091  TIP3      OH2            -5.0566209853       20.2623127531      -49.9546708782  TIP3      8891            0.0000000000
     51588      9091  TIP3      H1             -4.4676424426       19.8565161819      -49.2915095653  TIP3      8891            0.0000000000
     51589      9091  TIP3      H2             -5.9383575532       19.9140319617      -49.7481490039  TIP3      8891            0.0000000000
     51590      9092  TIP3      OH2            -5.4849721990       21.8972515182      -45.0057786254  TIP3      8892            0.0000000000
     51591      9092  TIP3      H1             -5.1762353615       20.9729519910      -44.8607287630  TIP3      8892            0.0000000000
     51592      9092  TIP3      H2             -4.6861220612       22.3045500927      -45.3718310194  TIP3      8892            0.0000000000
     51593      9093  TIP3      OH2            -4.8337940100       22.4576670717      -39.5464304588  TIP3      8893            0.0000000000
     51594      9093  TIP3      H1             -3.8728733469       22.6865661224      -39.5600081596  TIP3      8893            0.0000000000
     51595      9093  TIP3      H2             -5.0206068363       22.5970056454      -38.6063579093  TIP3      8893            0.0000000000
     51596      9094  TIP3      OH2            -4.7662246106       23.1785163163      -36.7639098068  TIP3      8894            0.0000000000
     51597      9094  TIP3      H1             -5.6516864288       23.4666045842      -36.4510148627  TIP3      8894            0.0000000000
     51598      9094  TIP3      H2             -4.3334252209       24.0357257003      -36.9879090723  TIP3      8894            0.0000000000
     51599      9095  TIP3      OH2           -20.5326382127       21.7076073289      -33.2278432620  TIP3      8895            0.0000000000
     51600      9095  TIP3      H1            -19.5897400442       21.5135071425      -33.0460757256  TIP3      8895            0.0000000000
     51601      9095  TIP3      H2            -20.9626232558       20.8783920395      -32.9518552590  TIP3      8895            0.0000000000
     51602      9096  TIP3      OH2            -2.4947434216       17.2440252442      -31.4281750144  TIP3      8896            0.0000000000
     51603      9096  TIP3      H1             -2.1419781059       16.5825406300      -32.0480800425  TIP3      8896            0.0000000000
     51604      9096  TIP3      H2             -2.3943065904       18.0579867443      -31.9614537252  TIP3      8896            0.0000000000
     51605      9097  TIP3      OH2            -4.7933215393       19.1945340038      -44.9429146698  TIP3      8897            0.0000000000
     51606      9097  TIP3      H1             -4.5869049043       18.7601661339      -44.0870972191  TIP3      8897            0.0000000000
     51607      9097  TIP3      H2             -5.4117788482       18.5681499880      -45.3810751962  TIP3      8897            0.0000000000
     51608      9098  TIP3      OH2           -19.3239773367       20.0058898539      -40.3784347734  TIP3      8898            0.0000000000
     51609      9098  TIP3      H1            -18.8582717449       19.1792970498      -40.1311193374  TIP3      8898            0.0000000000
     51610      9098  TIP3      H2            -18.7645358828       20.6967443181      -39.9972245053  TIP3      8898            0.0000000000
     51611      9099  TIP3      OH2           -21.0350100652       23.0097503194      -39.3507852516  TIP3      8899            0.0000000000
     51612      9099  TIP3      H1            -20.4708695651       22.7573102652      -40.1100571904  TIP3      8899            0.0000000000
     51613      9099  TIP3      H2            -20.5655953928       23.8121729360      -39.0809034965  TIP3      8899            0.0000000000
     51614      9100  TIP3      OH2            -2.9743740965       19.3417156371      -33.0724597891  TIP3      8900            0.0000000000
     51615      9100  TIP3      H1             -3.9127520823       19.6139278556      -33.1227994340  TIP3      8900            0.0000000000
     51616      9100  TIP3      H2             -2.9423128945       18.7895298409      -33.8686468708  TIP3      8900            0.0000000000
     51617      9101  TIP3      OH2            -2.9613030715       19.2464823892      -48.3753929320  TIP3      8901            0.0000000000
     51618      9101  TIP3      H1             -2.5419595401       18.5633885447      -48.9148502057  TIP3      8901            0.0000000000
     51619      9101  TIP3      H2             -2.2640327056       19.9223107499      -48.3773972333  TIP3      8901            0.0000000000
     51620      9102  TIP3      OH2           -20.6676447437       19.2730266926      -45.2755298558  TIP3      8902            0.0000000000
     51621      9102  TIP3      H1            -21.6094420150       19.4508771681      -45.4164646654  TIP3      8902            0.0000000000
     51622      9102  TIP3      H2            -20.2564471189       19.7599905999      -46.0110882799  TIP3      8902            0.0000000000
     51623      9103  TIP3      OH2            -5.9217478263       34.2108886987      -43.3401880627  TIP3      8903            0.0000000000
     51624      9103  TIP3      H1             -5.2479139208       33.9061043588      -43.9656168366  TIP3      8903            0.0000000000
     51625      9103  TIP3      H2             -5.4144682310       34.7249072584      -42.6925132063  TIP3      8903            0.0000000000
     51626      9104  TIP3      OH2           -20.7173260267       17.9176412938      -36.9884648718  TIP3      8904            0.0000000000
     51627      9104  TIP3      H1            -21.3794358368       17.7202521321      -36.3097269707  TIP3      8904            0.0000000000
     51628      9104  TIP3      H2            -21.1775826799       18.5951224969      -37.5244719963  TIP3      8904            0.0000000000
     51629      9105  TIP3      OH2           -18.4811421600       31.1722709610      -32.8263278333  TIP3      8905            0.0000000000
     51630      9105  TIP3      H1            -19.3194969141       31.2984459281      -33.3080379660  TIP3      8905            0.0000000000
     51631      9105  TIP3      H2            -18.6625894557       30.9681679471      -31.9156463344  TIP3      8905            0.0000000000
     51632      9106  TIP3      OH2           -15.5833106798       32.1343171488      -36.5364529454  TIP3      8906            0.0000000000
     51633      9106  TIP3      H1            -15.8971591852       33.0109731624      -36.8099579629  TIP3      8906            0.0000000000
     51634      9106  TIP3      H2            -14.6544964125       32.2111057820      -36.8450273976  TIP3      8906            0.0000000000
     51635      9107  TIP3      OH2           -11.2639801094       33.5580341832      -33.6397972819  TIP3      8907            0.0000000000
     51636      9107  TIP3      H1            -11.1227334952       33.2002019111      -32.7328994768  TIP3      8907            0.0000000000
     51637      9107  TIP3      H2            -10.3608732954       33.8589636157      -33.8881933002  TIP3      8907            0.0000000000
     51638      9108  TIP3      OH2            -8.9622221303       34.8796090755      -34.3379378257  TIP3      8908            0.0000000000
     51639      9108  TIP3      H1             -8.2435563719       34.2751543369      -34.5717077926  TIP3      8908            0.0000000000
     51640      9108  TIP3      H2             -8.5993083707       35.2384822968      -33.5022186402  TIP3      8908            0.0000000000
     51641      9109  TIP3      OH2            -3.9534286088       17.4311466942      -35.2182535857  TIP3      8909            0.0000000000
     51642      9109  TIP3      H1             -4.7816831839       17.7302679407      -35.6304405461  TIP3      8909            0.0000000000
     51643      9109  TIP3      H2             -3.7863146338       16.6075883179      -35.7350351715  TIP3      8909            0.0000000000
     51644      9110  TIP3      OH2           -18.1783771339       35.3464057062      -36.5570765456  TIP3      8910            0.0000000000
     51645      9110  TIP3      H1            -18.8986955146       35.8613961106      -36.9426019817  TIP3      8910            0.0000000000
     51646      9110  TIP3      H2            -18.4763233877       35.1914003201      -35.6489988869  TIP3      8910            0.0000000000
     51647      9111  TIP3      OH2           -15.6854230055       34.9311904773      -37.4715894080  TIP3      8911            0.0000000000
     51648      9111  TIP3      H1            -16.5764125380       35.0904712003      -37.0802010639  TIP3      8911            0.0000000000
     51649      9111  TIP3      H2            -15.7359195746       35.5206191360      -38.2454804607  TIP3      8911            0.0000000000
     51650      9112  TIP3      OH2           -10.9835015086       34.8528970867      -38.2793827716  TIP3      8912            0.0000000000
     51651      9112  TIP3      H1            -11.4367387652       35.3920880890      -38.9489847194  TIP3      8912            0.0000000000
     51652      9112  TIP3      H2            -10.8369006687       35.5117443148      -37.5673387187  TIP3      8912            0.0000000000
     51653      9113  TIP3      OH2            -8.6920871923       33.6643356350      -37.2744473929  TIP3      8913            0.0000000000
     51654      9113  TIP3      H1             -9.5446291421       33.9424762304      -37.6436428650  TIP3      8913            0.0000000000
     51655      9113  TIP3      H2             -8.2051893770       34.5069573166      -37.3534225167  TIP3      8913            0.0000000000
     51656      9114  TIP3      OH2            -6.0961271320       35.2667617138      -37.0437272496  TIP3      8914            0.0000000000
     51657      9114  TIP3      H1             -6.1734410958       36.2266255594      -37.2711360363  TIP3      8914            0.0000000000
     51658      9114  TIP3      H2             -5.9097897094       34.8769110809      -37.9214094414  TIP3      8914            0.0000000000
     51659      9115  TIP3      OH2           -18.6997623220       34.0171604481      -39.6020163781  TIP3      8915            0.0000000000
     51660      9115  TIP3      H1            -18.7826948643       33.5512487711      -38.7423536145  TIP3      8915            0.0000000000
     51661      9115  TIP3      H2            -17.8839766560       33.6337132078      -39.9907559717  TIP3      8915            0.0000000000
     51662      9116  TIP3      OH2           -16.6200041639       32.7218814158      -40.9475207609  TIP3      8916            0.0000000000
     51663      9116  TIP3      H1            -16.7849770357       31.7884852582      -40.7156919402  TIP3      8916            0.0000000000
     51664      9116  TIP3      H2            -15.7617880049       32.8729678642      -40.4982739791  TIP3      8916            0.0000000000
     51665      9117  TIP3      OH2           -14.0111990982       33.2125272327      -40.0693589239  TIP3      8917            0.0000000000
     51666      9117  TIP3      H1            -13.8614506618       32.2855538268      -40.3319843259  TIP3      8917            0.0000000000
     51667      9117  TIP3      H2            -13.9713039661       33.1625531824      -39.1034325348  TIP3      8917            0.0000000000
     51668      9118  TIP3      OH2           -10.5655816458       18.8601668566      -40.9419062394  TIP3      8918            0.0000000000
     51669      9118  TIP3      H1            -11.2394317866       18.2198054035      -40.6543079557  TIP3      8918            0.0000000000
     51670      9118  TIP3      H2            -10.0119948113       18.3229151321      -41.5196588738  TIP3      8918            0.0000000000
     51671      9119  TIP3      OH2            -5.4278159540       16.9015407242      -40.8720877318  TIP3      8919            0.0000000000
     51672      9119  TIP3      H1             -4.8168916173       17.4966187694      -41.3784980034  TIP3      8919            0.0000000000
     51673      9119  TIP3      H2             -6.3098135073       17.2655709381      -41.1014288608  TIP3      8919            0.0000000000
     51674      9120  TIP3      OH2            -3.7613130546       18.1531687110      -42.5935667461  TIP3      8920            0.0000000000
     51675      9120  TIP3      H1             -3.0732884371       17.5787295789      -43.0095298851  TIP3      8920            0.0000000000
     51676      9120  TIP3      H2             -3.2521812986       18.9901330339      -42.4872509458  TIP3      8920            0.0000000000
     51677      9121  TIP3      OH2           -18.1905067615       17.4840352940      -43.0880099935  TIP3      8921            0.0000000000
     51678      9121  TIP3      H1            -18.9873844379       17.2898612913      -43.6183391524  TIP3      8921            0.0000000000
     51679      9121  TIP3      H2            -17.7349944113       16.6209631261      -43.1428205796  TIP3      8921            0.0000000000
     51680      9122  TIP3      OH2           -19.4458864160       17.2380693585      -47.4093592452  TIP3      8922            0.0000000000
     51681      9122  TIP3      H1            -18.9147290205       17.9141572732      -47.8756167299  TIP3      8922            0.0000000000
     51682      9122  TIP3      H2            -19.9645146309       17.7948602643      -46.8017007465  TIP3      8922            0.0000000000
     51683      9123  TIP3      OH2           -13.7250350351       17.4091473607      -43.3009061019  TIP3      8923            0.0000000000
     51684      9123  TIP3      H1            -12.8241063244       17.7658985052      -43.3753624459  TIP3      8923            0.0000000000
     51685      9123  TIP3      H2            -13.7565729134       17.1894740595      -42.3707187822  TIP3      8923            0.0000000000
     51686      9124  TIP3      OH2            -8.0057080608       17.4271515264      -41.6765915791  TIP3      8924            0.0000000000
     51687      9124  TIP3      H1             -8.0613416134       17.5409560979      -42.6345486789  TIP3      8924            0.0000000000
     51688      9124  TIP3      H2             -8.3945359779       16.5271146626      -41.5431257389  TIP3      8924            0.0000000000
     51689      9125  TIP3      OH2            -6.7235323529       17.4531688285      -46.0044001922  TIP3      8925            0.0000000000
     51690      9125  TIP3      H1             -7.4718990200       18.0443384289      -46.1787765436  TIP3      8925            0.0000000000
     51691      9125  TIP3      H2             -7.1773158647       16.6065210542      -45.7883551893  TIP3      8925            0.0000000000
     51692      9126  TIP3      OH2           -19.4589613477       33.1927510717      -46.4360735568  TIP3      8926            0.0000000000
     51693      9126  TIP3      H1            -20.2075152121       33.1748167010      -47.0504765054  TIP3      8926            0.0000000000
     51694      9126  TIP3      H2            -19.5027117499       34.1154447315      -46.1547304895  TIP3      8926            0.0000000000
     51695      9127  TIP3      OH2           -17.6188273326       19.1416381184      -48.8483486814  TIP3      8927            0.0000000000
     51696      9127  TIP3      H1            -17.0873509117       18.5087590724      -49.3428599340  TIP3      8927            0.0000000000
     51697      9127  TIP3      H2            -16.9600040701       19.5098066327      -48.2313510638  TIP3      8927            0.0000000000
     51698      9128  TIP3      OH2           -12.5467990588       19.4425550747      -46.4598626703  TIP3      8928            0.0000000000
     51699      9128  TIP3      H1            -12.3166931789       18.8464260201      -45.7290712166  TIP3      8928            0.0000000000
     51700      9128  TIP3      H2            -12.5119377871       20.2905157639      -45.9633544774  TIP3      8928            0.0000000000
     51701      9129  TIP3      OH2           -10.6439143484       34.4858619978      -48.0223088155  TIP3      8929            0.0000000000
     51702      9129  TIP3      H1             -9.7086204275       34.7498260492      -48.1914338970  TIP3      8929            0.0000000000
     51703      9129  TIP3      H2            -10.8246108949       33.9876413510      -48.8458326363  TIP3      8929            0.0000000000
     51704      9130  TIP3      OH2            -3.9063367442       34.0007021215      -45.3023775593  TIP3      8930            0.0000000000
     51705      9130  TIP3      H1             -4.1510203585       33.2198928530      -45.8564546726  TIP3      8930            0.0000000000
     51706      9130  TIP3      H2             -4.0306881098       34.7478448838      -45.9227980558  TIP3      8930            0.0000000000
     51707      9131  TIP3      OH2           -18.3085451691       18.0269202006      -33.6369390191  TIP3      8931            0.0000000000
     51708      9131  TIP3      H1            -18.6975392914       17.2301665732      -33.2338009753  TIP3      8931            0.0000000000
     51709      9131  TIP3      H2            -17.3980406467       17.9838389528      -33.2554326862  TIP3      8931            0.0000000000
     51710      9132  TIP3      OH2           -16.3090020493       17.4092789995      -31.9891327363  TIP3      8932            0.0000000000
     51711      9132  TIP3      H1            -15.4142022701       17.0740255378      -32.2084285873  TIP3      8932            0.0000000000
     51712      9132  TIP3      H2            -16.6785278433       16.5994799761      -31.5875953133  TIP3      8932            0.0000000000
     51713      9133  TIP3      OH2           -17.3684795727       34.3717485004      -49.0902143423  TIP3      8933            0.0000000000
     51714      9133  TIP3      H1            -17.9290244996       34.3762051834      -48.3096742101  TIP3      8933            0.0000000000
     51715      9133  TIP3      H2            -16.8659093777       33.5488307056      -49.0599719010  TIP3      8933            0.0000000000
     51716      9134  TIP3      OH2            -7.9104753184       16.6954532766      -31.8452027433  TIP3      8934            0.0000000000
     51717      9134  TIP3      H1             -7.8113291552       16.2247077342      -30.9942553443  TIP3      8934            0.0000000000
     51718      9134  TIP3      H2             -6.9946099423       16.6722007695      -32.1928727664  TIP3      8934            0.0000000000
     51719      9135  TIP3      OH2            -4.6954164058       32.7467175176      -33.2111032863  TIP3      8935            0.0000000000
     51720      9135  TIP3      H1             -5.4990752862       32.6093711362      -33.7585307235  TIP3      8935            0.0000000000
     51721      9135  TIP3      H2             -4.8135815057       33.6947476148      -32.9931252188  TIP3      8935            0.0000000000
     51722      9136  TIP3      OH2             9.7522411051       26.6269063124      -43.2443063487  TIP3      8936            0.0000000000
     51723      9136  TIP3      H1              9.7344690085       27.6072162468      -43.2678318875  TIP3      8936            0.0000000000
     51724      9136  TIP3      H2              9.0176356517       26.3919166779      -43.8330887699  TIP3      8936            0.0000000000
     51725      9137  TIP3      OH2             8.6053368634       25.8778996321      -39.7265083258  TIP3      8937            0.0000000000
     51726      9137  TIP3      H1              8.5893849945       25.2280664293      -39.0098048353  TIP3      8937            0.0000000000
     51727      9137  TIP3      H2              8.2551915138       25.3692121102      -40.4779592858  TIP3      8937            0.0000000000
     51728      9138  TIP3      OH2             0.9565466823       25.5555798788      -38.1776788102  TIP3      8938            0.0000000000
     51729      9138  TIP3      H1              1.0405121227       24.8668837373      -37.4852630939  TIP3      8938            0.0000000000
     51730      9138  TIP3      H2              1.7066305838       26.1251460888      -37.9534498309  TIP3      8938            0.0000000000
     51731      9139  TIP3      OH2            12.2886357861       28.8265228930      -41.4440446884  TIP3      8939            0.0000000000
     51732      9139  TIP3      H1             11.8756480945       28.1096504015      -40.9529114333  TIP3      8939            0.0000000000
     51733      9139  TIP3      H2             12.3145776307       29.5347823064      -40.7740596929  TIP3      8939            0.0000000000
     51734      9140  TIP3      OH2             1.8808855264       30.0012379000      -39.6752871549  TIP3      8940            0.0000000000
     51735      9140  TIP3      H1              1.5736141819       29.1329210261      -39.9940296732  TIP3      8940            0.0000000000
     51736      9140  TIP3      H2              2.8379358964       29.8210427842      -39.6323819687  TIP3      8940            0.0000000000
     51737      9141  TIP3      OH2            -1.4845273631       23.5554306883      -44.1868879186  TIP3      8941            0.0000000000
     51738      9141  TIP3      H1             -1.9131777058       24.4292498524      -44.2455159786  TIP3      8941            0.0000000000
     51739      9141  TIP3      H2             -2.0380103266       23.0191025780      -44.7689100839  TIP3      8941            0.0000000000
     51740      9142  TIP3      OH2            -0.7654342217       25.7844514602      -42.0352264085  TIP3      8942            0.0000000000
     51741      9142  TIP3      H1             -0.4892760409       24.9628230431      -41.5871004430  TIP3      8942            0.0000000000
     51742      9142  TIP3      H2             -0.0737083106       25.8918005453      -42.7056141815  TIP3      8942            0.0000000000
     51743      9143  TIP3      OH2             9.3951674946       33.9749538461      -41.2064137171  TIP3      8943            0.0000000000
     51744      9143  TIP3      H1             10.0553098173       33.2963216968      -41.4931434803  TIP3      8943            0.0000000000
     51745      9143  TIP3      H2              9.1917881264       33.6435220513      -40.3331805426  TIP3      8943            0.0000000000
     51746      9144  TIP3      OH2             6.9795119981       28.2742132884      -39.2543149377  TIP3      8944            0.0000000000
     51747      9144  TIP3      H1              7.3167479243       27.6506792967      -39.9149216937  TIP3      8944            0.0000000000
     51748      9144  TIP3      H2              7.7912357259       28.4349429974      -38.7419871121  TIP3      8944            0.0000000000
     51749      9145  TIP3      OH2            15.5711198857       19.9424332790      -38.5358343715  TIP3      8945            0.0000000000
     51750      9145  TIP3      H1             15.7522429358       20.5257418018      -37.7673815514  TIP3      8945            0.0000000000
     51751      9145  TIP3      H2             16.1441633926       20.3592534397      -39.1952574155  TIP3      8945            0.0000000000
     51752      9146  TIP3      OH2            10.1470413112       22.7460951187      -38.9423262888  TIP3      8946            0.0000000000
     51753      9146  TIP3      H1             10.3156656670       21.7873523733      -38.9371825026  TIP3      8946            0.0000000000
     51754      9146  TIP3      H2             10.0441529985       22.8855016278      -39.9035933965  TIP3      8946            0.0000000000
     51755      9147  TIP3      OH2             3.2600180283       20.8357406065      -41.7294941495  TIP3      8947            0.0000000000
     51756      9147  TIP3      H1              3.3687082834       21.6697602295      -42.2230344802  TIP3      8947            0.0000000000
     51757      9147  TIP3      H2              2.8621974279       20.2619154784      -42.4191339632  TIP3      8947            0.0000000000
     51758      9148  TIP3      OH2            11.0001104670       20.9161685541      -43.3585377450  TIP3      8948            0.0000000000
     51759      9148  TIP3      H1             11.6502078648       20.6016130235      -42.6872990536  TIP3      8948            0.0000000000
     51760      9148  TIP3      H2             11.5644309730       21.4868404569      -43.9050402272  TIP3      8948            0.0000000000
     51761      9149  TIP3      OH2            -0.1171699967       23.2473764016      -40.9944742300  TIP3      8949            0.0000000000
     51762      9149  TIP3      H1              0.5536359017       22.7031028435      -40.5394254096  TIP3      8949            0.0000000000
     51763      9149  TIP3      H2             -0.0089591857       22.9318640306      -41.9047565873  TIP3      8949            0.0000000000
     51764      9150  TIP3      OH2             5.0423327805       24.8017406479      -41.6715700078  TIP3      8950            0.0000000000
     51765      9150  TIP3      H1              5.7146109254       24.2205492662      -41.2747712027  TIP3      8950            0.0000000000
     51766      9150  TIP3      H2              4.5284074953       24.1453828274      -42.1821341434  TIP3      8950            0.0000000000
     51767      9151  TIP3      OH2            16.0141816399       21.3408585007      -36.2557232250  TIP3      8951            0.0000000000
     51768      9151  TIP3      H1             15.4122175249       22.1092570679      -36.3690633209  TIP3      8951            0.0000000000
     51769      9151  TIP3      H2             16.0490593253       21.2648322180      -35.2954543570  TIP3      8951            0.0000000000
     51770      9152  TIP3      OH2             2.1713868107       19.7354942428      -37.6893258883  TIP3      8952            0.0000000000
     51771      9152  TIP3      H1              1.8880886293       20.3068936132      -38.4346611891  TIP3      8952            0.0000000000
     51772      9152  TIP3      H2              1.4941846373       19.9633271781      -37.0066840608  TIP3      8952            0.0000000000
     51773      9153  TIP3      OH2             9.4479680795       29.2051432403      -44.1425865093  TIP3      8953            0.0000000000
     51774      9153  TIP3      H1              9.1731213915       28.9263845786      -45.0289095709  TIP3      8953            0.0000000000
     51775      9153  TIP3      H2              9.1510319130       30.1438712714      -44.1008905322  TIP3      8953            0.0000000000
     51776      9154  TIP3      OH2             4.6815553323       27.3771855371      -37.4515956548  TIP3      8954            0.0000000000
     51777      9154  TIP3      H1              3.9782242840       28.0223325070      -37.2281569188  TIP3      8954            0.0000000000
     51778      9154  TIP3      H2              5.3884318523       27.9754667444      -37.7419604127  TIP3      8954            0.0000000000
     51779      9155  TIP3      OH2            12.8130939855       20.2618725758      -41.3663391060  TIP3      8955            0.0000000000
     51780      9155  TIP3      H1             12.5893713529       19.4937608469      -40.8332724458  TIP3      8955            0.0000000000
     51781      9155  TIP3      H2             13.4814166947       20.6978677955      -40.8108580384  TIP3      8955            0.0000000000
     51782      9156  TIP3      OH2             1.7396601740       21.5906640151      -39.6508839617  TIP3      8956            0.0000000000
     51783      9156  TIP3      H1              2.3665718053       22.2810200415      -39.3389800558  TIP3      8956            0.0000000000
     51784      9156  TIP3      H2              2.2544558926       21.1820360517      -40.3911127744  TIP3      8956            0.0000000000
     51785      9157  TIP3      OH2             3.1324104841       29.3856193241      -36.6296296261  TIP3      8957            0.0000000000
     51786      9157  TIP3      H1              3.0829836078       30.2982528709      -36.9677861060  TIP3      8957            0.0000000000
     51787      9157  TIP3      H2              2.2496791259       29.3030748623      -36.1870112746  TIP3      8957            0.0000000000
     51788      9158  TIP3      OH2            -0.8139342369       28.9803218741      -45.7999065904  TIP3      8958            0.0000000000
     51789      9158  TIP3      H1             -1.0377965996       29.2926987070      -46.6984405442  TIP3      8958            0.0000000000
     51790      9158  TIP3      H2             -0.7283819537       29.8226367337      -45.3112710452  TIP3      8958            0.0000000000
     51791      9159  TIP3      OH2            12.8180845623       30.6638207718      -39.0772737989  TIP3      8959            0.0000000000
     51792      9159  TIP3      H1             11.8500837949       30.7770631611      -38.9581765799  TIP3      8959            0.0000000000
     51793      9159  TIP3      H2             13.0884577963       31.5799651511      -39.2805786151  TIP3      8959            0.0000000000
     51794      9160  TIP3      OH2            13.1402461003       18.9460576682      -37.6887711613  TIP3      8960            0.0000000000
     51795      9160  TIP3      H1             12.4183279931       19.5806414245      -37.7826865781  TIP3      8960            0.0000000000
     51796      9160  TIP3      H2             13.8563911319       19.3652119709      -38.2113134960  TIP3      8960            0.0000000000
     51797      9161  TIP3      OH2             6.1058997340       17.0693622254      -40.2227086318  TIP3      8961            0.0000000000
     51798      9161  TIP3      H1              5.9618126134       16.1059173752      -40.2997907096  TIP3      8961            0.0000000000
     51799      9161  TIP3      H2              5.2275682958       17.3745981715      -39.9163205748  TIP3      8961            0.0000000000
     51800      9162  TIP3      OH2            11.0914842617       32.4521249987      -42.4693929299  TIP3      8962            0.0000000000
     51801      9162  TIP3      H1             11.5043213722       31.7331878406      -42.9939482548  TIP3      8962            0.0000000000
     51802      9162  TIP3      H2             11.5153742702       33.2453956143      -42.8685404185  TIP3      8962            0.0000000000
     51803      9163  TIP3      OH2            12.2883895708       30.3684437710      -43.9520719351  TIP3      8963            0.0000000000
     51804      9163  TIP3      H1             11.9996974118       29.6830028872      -44.5804359592  TIP3      8963            0.0000000000
     51805      9163  TIP3      H2             12.3222541614       29.8671915086      -43.1194543297  TIP3      8963            0.0000000000
     51806      9164  TIP3      OH2            13.9049447995       28.9741814806      -35.4780529658  TIP3      8964            0.0000000000
     51807      9164  TIP3      H1             14.0535886087       28.3177968459      -36.1946533363  TIP3      8964            0.0000000000
     51808      9164  TIP3      H2             14.1142289498       29.8136373573      -35.9242328295  TIP3      8964            0.0000000000
     51809      9165  TIP3      OH2             8.3891417929       25.8925103833      -45.7174974234  TIP3      8965            0.0000000000
     51810      9165  TIP3      H1              7.6978622677       26.4731119586      -46.0915560403  TIP3      8965            0.0000000000
     51811      9165  TIP3      H2              9.1090924777       25.9633247968      -46.3735853056  TIP3      8965            0.0000000000
     51812      9166  TIP3      OH2             8.5069296247       24.3566699166      -48.6785500109  TIP3      8966            0.0000000000
     51813      9166  TIP3      H1              9.2235401499       24.3934549978      -48.0164619665  TIP3      8966            0.0000000000
     51814      9166  TIP3      H2              8.8392183661       23.6573877681      -49.2686832611  TIP3      8966            0.0000000000
     51815      9167  TIP3      OH2            15.7950502588       25.2842772144      -37.4345346032  TIP3      8967            0.0000000000
     51816      9167  TIP3      H1             15.1376650501       26.0084295504      -37.3965576722  TIP3      8967            0.0000000000
     51817      9167  TIP3      H2             16.2907915163       25.5171798261      -38.2406192838  TIP3      8967            0.0000000000
     51818      9168  TIP3      OH2            11.8463249419       26.0817678721      -44.7723633458  TIP3      8968            0.0000000000
     51819      9168  TIP3      H1             11.0985324098       26.3152617140      -44.1714978430  TIP3      8968            0.0000000000
     51820      9168  TIP3      H2             12.3255194101       25.4025951960      -44.2659631909  TIP3      8968            0.0000000000
     51821      9169  TIP3      OH2            11.7826217555       24.2356809603      -35.6669044930  TIP3      8969            0.0000000000
     51822      9169  TIP3      H1             11.7896624654       25.0566369688      -35.1472231346  TIP3      8969            0.0000000000
     51823      9169  TIP3      H2             11.1536051675       24.5264103453      -36.3598359385  TIP3      8969            0.0000000000
     51824      9170  TIP3      OH2             3.4623974902       26.7276566009      -42.8765197282  TIP3      8970            0.0000000000
     51825      9170  TIP3      H1              3.1449212113       26.3498061276      -43.7340361651  TIP3      8970            0.0000000000
     51826      9170  TIP3      H2              4.0783313447       26.0364191656      -42.5452990184  TIP3      8970            0.0000000000
     51827      9171  TIP3      OH2             4.7834353006       30.1122340669      -40.1955128096  TIP3      8971            0.0000000000
     51828      9171  TIP3      H1              4.7789498053       29.5906295827      -41.0067638609  TIP3      8971            0.0000000000
     51829      9171  TIP3      H2              5.5670670503       29.7566040934      -39.7375853809  TIP3      8971            0.0000000000
     51830      9172  TIP3      OH2             3.7924782699       25.4763393891      -39.2125174457  TIP3      8972            0.0000000000
     51831      9172  TIP3      H1              4.3405052006       25.5737434467      -40.0159665710  TIP3      8972            0.0000000000
     51832      9172  TIP3      H2              4.1858195259       26.1416758428      -38.6048998185  TIP3      8972            0.0000000000
     51833      9173  TIP3      OH2            10.2146221684       31.0508309484      -38.5036055797  TIP3      8973            0.0000000000
     51834      9173  TIP3      H1              9.9274200987       31.6841516738      -37.8401636672  TIP3      8973            0.0000000000
     51835      9173  TIP3      H2              9.9573327666       30.1963069156      -38.0848229679  TIP3      8973            0.0000000000
     51836      9174  TIP3      OH2             4.7470918401       29.9119643838      -34.5174680988  TIP3      8974            0.0000000000
     51837      9174  TIP3      H1              4.3362044960       30.6606096206      -34.0369755043  TIP3      8974            0.0000000000
     51838      9174  TIP3      H2              4.0756935840       29.7075600987      -35.2145338591  TIP3      8974            0.0000000000
     51839      9175  TIP3      OH2            10.6892414249       25.2829652414      -47.1158064636  TIP3      8975            0.0000000000
     51840      9175  TIP3      H1             11.2670678808       25.4506927731      -46.3332728182  TIP3      8975            0.0000000000
     51841      9175  TIP3      H2             11.1781219661       25.7498245990      -47.8362993758  TIP3      8975            0.0000000000
     51842      9176  TIP3      OH2             1.6899437605       26.0658616358      -35.3662231744  TIP3      8976            0.0000000000
     51843      9176  TIP3      H1              1.7433605741       26.7338992704      -34.6577776622  TIP3      8976            0.0000000000
     51844      9176  TIP3      H2              0.7468410839       26.1534592218      -35.5753503795  TIP3      8976            0.0000000000
     51845      9177  TIP3      OH2             8.4553600121       32.0046782225      -43.6725136666  TIP3      8977            0.0000000000
     51846      9177  TIP3      H1              8.8706755563       32.3053720805      -42.8543775067  TIP3      8977            0.0000000000
     51847      9177  TIP3      H2              7.8771827147       32.7435294815      -43.8887614876  TIP3      8977            0.0000000000
     51848      9178  TIP3      OH2             2.9900891046       31.9413248389      -33.7717324336  TIP3      8978            0.0000000000
     51849      9178  TIP3      H1              2.9307408970       31.8390930672      -34.7367336394  TIP3      8978            0.0000000000
     51850      9178  TIP3      H2              2.0569076794       31.8115124543      -33.5096999810  TIP3      8978            0.0000000000
     51851      9179  TIP3      OH2            14.4715796402       16.9836797884      -47.2704996150  TIP3      8979            0.0000000000
     51852      9179  TIP3      H1             13.5277175609       17.0854965925      -46.9928850036  TIP3      8979            0.0000000000
     51853      9179  TIP3      H2             14.6400019032       17.8534934518      -47.6705938340  TIP3      8979            0.0000000000
     51854      9180  TIP3      OH2             2.4166776139       25.7540962052      -45.2305915507  TIP3      8980            0.0000000000
     51855      9180  TIP3      H1              2.1382606234       26.5234250005      -45.7705815672  TIP3      8980            0.0000000000
     51856      9180  TIP3      H2              1.7831642755       25.0781006568      -45.4795699060  TIP3      8980            0.0000000000
     51857      9181  TIP3      OH2            15.5337052982       31.3808184396      -48.7515656064  TIP3      8981            0.0000000000
     51858      9181  TIP3      H1             15.7045910145       32.3322638667      -48.6741311441  TIP3      8981            0.0000000000
     51859      9181  TIP3      H2             16.4249500847       31.0078369003      -48.8600267774  TIP3      8981            0.0000000000
     51860      9182  TIP3      OH2            -1.4821444042       28.1802145056      -36.3568902111  TIP3      8982            0.0000000000
     51861      9182  TIP3      H1             -1.9181066581       28.1011831900      -37.2240808651  TIP3      8982            0.0000000000
     51862      9182  TIP3      H2             -1.3939080838       27.2329873792      -36.1448037995  TIP3      8982            0.0000000000
     51863      9183  TIP3      OH2            -1.7121589796       30.9281140870      -39.6055035048  TIP3      8983            0.0000000000
     51864      9183  TIP3      H1             -0.7555108358       30.8036918359      -39.6051332858  TIP3      8983            0.0000000000
     51865      9183  TIP3      H2             -1.7978455951       31.7350411201      -39.0832134692  TIP3      8983            0.0000000000
     51866      9184  TIP3      OH2            16.5187653450       31.6106312516      -33.8956431247  TIP3      8984            0.0000000000
     51867      9184  TIP3      H1             16.4006845732       30.6524523185      -33.9221963760  TIP3      8984            0.0000000000
     51868      9184  TIP3      H2             15.6476098323       31.8659994279      -33.5097826529  TIP3      8984            0.0000000000
     51869      9185  TIP3      OH2             7.4806970939       31.1615260229      -35.0338290536  TIP3      8985            0.0000000000
     51870      9185  TIP3      H1              7.5389252856       32.0034731662      -34.5247920983  TIP3      8985            0.0000000000
     51871      9185  TIP3      H2              6.6084461722       30.8010629926      -34.7827332086  TIP3      8985            0.0000000000
     51872      9186  TIP3      OH2             7.9129572518       34.8944530669      -45.2455604893  TIP3      8986            0.0000000000
     51873      9186  TIP3      H1              7.8451862744       34.8256689042      -46.2096281326  TIP3      8986            0.0000000000
     51874      9186  TIP3      H2              7.9297998006       35.8506318781      -45.0774019614  TIP3      8986            0.0000000000
     51875      9187  TIP3      OH2             1.5553739997       33.7979402983      -43.3900017842  TIP3      8987            0.0000000000
     51876      9187  TIP3      H1              1.7110579973       33.3634459984      -42.5206132012  TIP3      8987            0.0000000000
     51877      9187  TIP3      H2              0.7184953926       33.3787203374      -43.6463671430  TIP3      8987            0.0000000000
     51878      9188  TIP3      OH2            10.8612401244       34.1730152330      -48.2078061692  TIP3      8988            0.0000000000
     51879      9188  TIP3      H1             11.3554606670       33.4346903002      -48.6542684102  TIP3      8988            0.0000000000
     51880      9188  TIP3      H2             11.0083267158       33.8760227913      -47.2977140428  TIP3      8988            0.0000000000
     51881      9189  TIP3      OH2            10.6596546557       34.0581377856      -45.4442765104  TIP3      8989            0.0000000000
     51882      9189  TIP3      H1              9.7008959069       34.1358561733      -45.2839532122  TIP3      8989            0.0000000000
     51883      9189  TIP3      H2             10.8964953568       33.2955515108      -44.8992025158  TIP3      8989            0.0000000000
     51884      9190  TIP3      OH2            13.6707975332       23.0880086084      -33.4276763026  TIP3      8990            0.0000000000
     51885      9190  TIP3      H1             13.1940069659       23.5385498500      -34.1436592706  TIP3      8990            0.0000000000
     51886      9190  TIP3      H2             13.6550867025       22.1684074337      -33.7321581062  TIP3      8990            0.0000000000
     51887      9191  TIP3      OH2             0.8128204407       29.4918254174      -35.4206095252  TIP3      8991            0.0000000000
     51888      9191  TIP3      H1              1.0322146820       29.1307375134      -34.5365843155  TIP3      8991            0.0000000000
     51889      9191  TIP3      H2             -0.0590890152       29.0982651768      -35.6334442957  TIP3      8991            0.0000000000
     51890      9192  TIP3      OH2             3.4922303292       17.9726396469      -39.4729622007  TIP3      8992            0.0000000000
     51891      9192  TIP3      H1              2.5896484488       17.8445865678      -39.8394354774  TIP3      8992            0.0000000000
     51892      9192  TIP3      H2              3.3564680443       18.8023052497      -38.9861413412  TIP3      8992            0.0000000000
     51893      9193  TIP3      OH2             8.1357877875       17.6363323448      -36.1128622382  TIP3      8993            0.0000000000
     51894      9193  TIP3      H1              8.5275490168       17.2139010513      -35.3257241354  TIP3      8993            0.0000000000
     51895      9193  TIP3      H2              7.1634637353       17.5224542297      -35.9659069962  TIP3      8993            0.0000000000
     51896      9194  TIP3      OH2            11.4215197595       21.4861003720      -35.2176324207  TIP3      8994            0.0000000000
     51897      9194  TIP3      H1             10.8584389851       21.2711318129      -34.4308443462  TIP3      8994            0.0000000000
     51898      9194  TIP3      H2             11.2376346228       22.4142407123      -35.4386361334  TIP3      8994            0.0000000000
     51899      9195  TIP3      OH2            12.4275340524       26.1585751899      -48.9352323148  TIP3      8995            0.0000000000
     51900      9195  TIP3      H1             12.2744326678       26.0967844434      -49.8859011253  TIP3      8995            0.0000000000
     51901      9195  TIP3      H2             13.1751289146       26.7828515788      -49.0319540511  TIP3      8995            0.0000000000
     51902      9196  TIP3      OH2             7.8084362738       20.2392621093      -48.7681986125  TIP3      8996            0.0000000000
     51903      9196  TIP3      H1              7.4581354153       20.1611789932      -47.8571195314  TIP3      8996            0.0000000000
     51904      9196  TIP3      H2              7.5026723165       19.3850160872      -49.0990361320  TIP3      8996            0.0000000000
     51905      9197  TIP3      OH2             3.5957902497       22.9500008255      -38.2076127624  TIP3      8997            0.0000000000
     51906      9197  TIP3      H1              2.8536447765       22.9379554580      -37.5782816960  TIP3      8997            0.0000000000
     51907      9197  TIP3      H2              3.5453227526       23.8547759593      -38.5909133048  TIP3      8997            0.0000000000
     51908      9198  TIP3      OH2             3.5532087514       23.0553185075      -43.3515709742  TIP3      8998            0.0000000000
     51909      9198  TIP3      H1              2.6137333856       22.8089931975      -43.4872208784  TIP3      8998            0.0000000000
     51910      9198  TIP3      H2              3.9302224209       22.7726136383      -44.2100957338  TIP3      8998            0.0000000000
     51911      9199  TIP3      OH2             9.0676798810       23.5660090653      -44.6045219070  TIP3      8999            0.0000000000
     51912      9199  TIP3      H1              8.6879852435       24.4007174721      -44.9582083093  TIP3      8999            0.0000000000
     51913      9199  TIP3      H2              9.7760139823       23.3943514379      -45.2505707357  TIP3      8999            0.0000000000
     51914      9200  TIP3      OH2             8.1267745409       23.7747956524      -33.1486262893  TIP3      9000            0.0000000000
     51915      9200  TIP3      H1              7.6023481614       22.9987039265      -32.8379717597  TIP3      9000            0.0000000000
     51916      9200  TIP3      H2              8.9648211644       23.6547637497      -32.6717085539  TIP3      9000            0.0000000000
     51917      9201  TIP3      OH2            10.1130416836       23.0506076125      -41.7393564639  TIP3      9001            0.0000000000
     51918      9201  TIP3      H1              9.8237962336       23.6193563774      -42.4735042772  TIP3      9001            0.0000000000
     51919      9201  TIP3      H2             10.2031036881       22.2052909747      -42.2213288826  TIP3      9001            0.0000000000
     51920      9202  TIP3      OH2             1.2153344524       23.1930056637      -36.5407554050  TIP3      9002            0.0000000000
     51921      9202  TIP3      H1              1.2992830479       23.6022725653      -35.6619225449  TIP3      9002            0.0000000000
     51922      9202  TIP3      H2              0.7748078392       22.3550719166      -36.3280093334  TIP3      9002            0.0000000000
     51923      9203  TIP3      OH2             4.6172669258       20.5847352589      -49.6761670122  TIP3      9003            0.0000000000
     51924      9203  TIP3      H1              4.1765285856       20.1777168631      -48.9036942875  TIP3      9003            0.0000000000
     51925      9203  TIP3      H2              3.8989217517       20.9738979671      -50.1742688951  TIP3      9003            0.0000000000
     51926      9204  TIP3      OH2            -2.1265558060       20.3021094742      -42.5468469876  TIP3      9004            0.0000000000
     51927      9204  TIP3      H1             -1.4418733465       20.2641284971      -41.8488356085  TIP3      9004            0.0000000000
     51928      9204  TIP3      H2             -1.6784661854       19.9307129823      -43.3301812618  TIP3      9004            0.0000000000
     51929      9205  TIP3      OH2            -0.8453157895       21.0226628486      -47.1773216146  TIP3      9005            0.0000000000
     51930      9205  TIP3      H1             -0.3497378395       21.6364377111      -47.7532349854  TIP3      9005            0.0000000000
     51931      9205  TIP3      H2             -1.5321023357       21.6521041918      -46.8755752996  TIP3      9005            0.0000000000
     51932      9206  TIP3      OH2             9.3027755993       24.6377055034      -37.1870999092  TIP3      9006            0.0000000000
     51933      9206  TIP3      H1              9.6852829733       23.9512222140      -37.7705713683  TIP3      9006            0.0000000000
     51934      9206  TIP3      H2              8.8361470761       24.1107568160      -36.5141309535  TIP3      9006            0.0000000000
     51935      9207  TIP3      OH2             6.1125632933       20.6222104303      -42.3511756573  TIP3      9007            0.0000000000
     51936      9207  TIP3      H1              5.1795587955       20.6190518375      -42.0619552049  TIP3      9007            0.0000000000
     51937      9207  TIP3      H2              6.5911110924       20.4441861000      -41.5271886591  TIP3      9007            0.0000000000
     51938      9208  TIP3      OH2             0.9150710848       22.1654825534      -43.4791034349  TIP3      9008            0.0000000000
     51939      9208  TIP3      H1              0.0326777195       22.3237700469      -43.8727369769  TIP3      9008            0.0000000000
     51940      9208  TIP3      H2              1.1997821607       21.3326433300      -43.8908492703  TIP3      9008            0.0000000000
     51941      9209  TIP3      OH2             4.5636828625       22.2191736271      -45.8370833691  TIP3      9009            0.0000000000
     51942      9209  TIP3      H1              5.5211332920       22.3150668745      -45.6721635741  TIP3      9009            0.0000000000
     51943      9209  TIP3      H2              4.3312109416       22.8819213707      -46.5170522652  TIP3      9009            0.0000000000
     51944      9210  TIP3      OH2            10.5136320969       19.8543545059      -39.1124905616  TIP3      9010            0.0000000000
     51945      9210  TIP3      H1              9.8297522687       19.8999567754      -38.4057571598  TIP3      9010            0.0000000000
     51946      9210  TIP3      H2             10.0033131783       19.5953014971      -39.8934655616  TIP3      9010            0.0000000000
     51947      9211  TIP3      OH2             3.2881333801       23.4085113334      -48.2442015283  TIP3      9011            0.0000000000
     51948      9211  TIP3      H1              2.6932062878       23.0524935045      -48.9069141094  TIP3      9011            0.0000000000
     51949      9211  TIP3      H2              4.0955549962       23.6108310743      -48.7398443989  TIP3      9011            0.0000000000
     51950      9212  TIP3      OH2            13.7160689877       35.4683493473      -32.7847473241  TIP3      9012            0.0000000000
     51951      9212  TIP3      H1             13.9633723383       35.8854092882      -33.6295071579  TIP3      9012            0.0000000000
     51952      9212  TIP3      H2             14.4076996326       35.8562865718      -32.2237216140  TIP3      9012            0.0000000000
     51953      9213  TIP3      OH2             1.3896595604       27.9594804444      -33.2104097726  TIP3      9013            0.0000000000
     51954      9213  TIP3      H1              2.1098126566       28.2077094865      -32.6080386216  TIP3      9013            0.0000000000
     51955      9213  TIP3      H2              0.6169408723       28.0408431731      -32.6096555120  TIP3      9013            0.0000000000
     51956      9214  TIP3      OH2             7.3883516822       23.3733909640      -40.4567010193  TIP3      9014            0.0000000000
     51957      9214  TIP3      H1              7.9900081159       22.8407297273      -40.9903718131  TIP3      9014            0.0000000000
     51958      9214  TIP3      H2              7.2435759625       22.8232297513      -39.6749454843  TIP3      9014            0.0000000000
     51959      9215  TIP3      OH2             2.3976137894       19.5156501881      -44.0189834190  TIP3      9015            0.0000000000
     51960      9215  TIP3      H1              2.0885974938       18.5907351185      -44.0342430086  TIP3      9015            0.0000000000
     51961      9215  TIP3      H2              3.1932496062       19.4494897213      -44.5596543795  TIP3      9015            0.0000000000
     51962      9216  TIP3      OH2             6.0286389212       21.6968485073      -38.0424698304  TIP3      9016            0.0000000000
     51963      9216  TIP3      H1              5.2038029894       22.2190485964      -37.9544373804  TIP3      9016            0.0000000000
     51964      9216  TIP3      H2              6.5836053286       22.0528195728      -37.3211613979  TIP3      9016            0.0000000000
     51965      9217  TIP3      OH2             6.6271092076       27.9174723132      -46.3328158277  TIP3      9017            0.0000000000
     51966      9217  TIP3      H1              5.8219084654       27.4636432639      -46.6613210473  TIP3      9017            0.0000000000
     51967      9217  TIP3      H2              6.4014348610       28.0552236068      -45.3900821571  TIP3      9017            0.0000000000
     51968      9218  TIP3      OH2            13.8062402067       27.1270935921      -37.5414563520  TIP3      9018            0.0000000000
     51969      9218  TIP3      H1             14.3672426707       27.6098408018      -38.1755926559  TIP3      9018            0.0000000000
     51970      9218  TIP3      H2             12.9451576307       27.1698777465      -38.0043611104  TIP3      9018            0.0000000000
     51971      9219  TIP3      OH2            10.4014831627       20.7620402420      -47.9992439652  TIP3      9019            0.0000000000
     51972      9219  TIP3      H1              9.4857528837       20.9138408419      -48.2748663470  TIP3      9019            0.0000000000
     51973      9219  TIP3      H2             10.7571128126       21.6574527415      -47.8355996321  TIP3      9019            0.0000000000
     51974      9220  TIP3      OH2             8.1095367091       28.1955225763      -35.0990412999  TIP3      9020            0.0000000000
     51975      9220  TIP3      H1              7.7590192719       27.7641914199      -34.3128011769  TIP3      9020            0.0000000000
     51976      9220  TIP3      H2              7.8515988824       29.1162016682      -34.9914890740  TIP3      9020            0.0000000000
     51977      9221  TIP3      OH2            11.1800041023       22.7013172795      -46.4854094963  TIP3      9021            0.0000000000
     51978      9221  TIP3      H1             12.0711503169       22.5129910268      -46.1176012293  TIP3      9021            0.0000000000
     51979      9221  TIP3      H2             11.2958393634       23.4859182420      -47.0428696766  TIP3      9021            0.0000000000
     51980      9222  TIP3      OH2             1.7301907413       27.3217262107      -40.5410924535  TIP3      9022            0.0000000000
     51981      9222  TIP3      H1              2.4092420547       27.2356997772      -41.2367768770  TIP3      9022            0.0000000000
     51982      9222  TIP3      H2              1.7855774405       26.4610549946      -40.0882818402  TIP3      9022            0.0000000000
     51983      9223  TIP3      OH2             8.7574146959       29.3959799316      -47.2970996662  TIP3      9023            0.0000000000
     51984      9223  TIP3      H1              8.3804735821       30.2368610556      -46.9680153951  TIP3      9023            0.0000000000
     51985      9223  TIP3      H2              7.9992733600       28.7947812718      -47.1295435785  TIP3      9023            0.0000000000
     51986      9224  TIP3      OH2            -1.2816444646       25.7196727414      -35.2844201417  TIP3      9024            0.0000000000
     51987      9224  TIP3      H1             -1.1148954890       25.2757283028      -34.4298901485  TIP3      9024            0.0000000000
     51988      9224  TIP3      H2             -1.9042170548       25.1111059867      -35.7229109746  TIP3      9024            0.0000000000
     51989      9225  TIP3      OH2             5.7292577380       25.2814481570      -33.1084597320  TIP3      9025            0.0000000000
     51990      9225  TIP3      H1              5.4087491985       24.9698985285      -33.9671235090  TIP3      9025            0.0000000000
     51991      9225  TIP3      H2              6.6515520344       24.9553585136      -33.1095840974  TIP3      9025            0.0000000000
     51992      9226  TIP3      OH2            10.4163602649       30.6169267115      -35.1503589744  TIP3      9026            0.0000000000
     51993      9226  TIP3      H1              9.4911748007       30.7943267190      -35.3847130431  TIP3      9026            0.0000000000
     51994      9226  TIP3      H2             10.3832468835       30.9110928286      -34.2199700275  TIP3      9026            0.0000000000
     51995      9227  TIP3      OH2            16.1189020807       22.7990257098      -46.7160606521  TIP3      9027            0.0000000000
     51996      9227  TIP3      H1             15.5329469544       22.5208934106      -47.4514835217  TIP3      9027            0.0000000000
     51997      9227  TIP3      H2             16.1735331225       23.7410542858      -46.9886380886  TIP3      9027            0.0000000000
     51998      9228  TIP3      OH2            16.0722209266       28.6536848123      -33.9620677527  TIP3      9028            0.0000000000
     51999      9228  TIP3      H1             15.1794725128       28.8783561308      -34.3236761854  TIP3      9028            0.0000000000
     52000      9228  TIP3      H2             16.6166809595       28.6053783467      -34.7753670705  TIP3      9028            0.0000000000
     52001      9229  TIP3      OH2            14.3886041308       31.6015022272      -46.3610647201  TIP3      9029            0.0000000000
     52002      9229  TIP3      H1             13.9910941809       30.7777708252      -46.0641807761  TIP3      9029            0.0000000000
     52003      9229  TIP3      H2             14.6648167562       31.4038288101      -47.2758874350  TIP3      9029            0.0000000000
     52004      9230  TIP3      OH2            11.5812976842       26.4402081579      -39.2595208539  TIP3      9030            0.0000000000
     52005      9230  TIP3      H1             10.6411504243       26.2334794034      -39.3729621184  TIP3      9030            0.0000000000
     52006      9230  TIP3      H2             12.0126511742       25.6824697359      -39.6978616057  TIP3      9030            0.0000000000
     52007      9231  TIP3      OH2             4.0972351604       30.7640973367      -43.1549558654  TIP3      9031            0.0000000000
     52008      9231  TIP3      H1              4.5947822464       31.5755734766      -43.3602792394  TIP3      9031            0.0000000000
     52009      9231  TIP3      H2              3.2218355452       31.0036576840      -43.4845409817  TIP3      9031            0.0000000000
     52010      9232  TIP3      OH2            -0.0743239738       25.5666592811      -48.5618953550  TIP3      9032            0.0000000000
     52011      9232  TIP3      H1              0.4644385931       26.2726433703      -48.1654686597  TIP3      9032            0.0000000000
     52012      9232  TIP3      H2             -0.9792871753       25.8869459753      -48.3432974302  TIP3      9032            0.0000000000
     52013      9233  TIP3      OH2             5.5172263933       28.4344513736      -43.6373875144  TIP3      9033            0.0000000000
     52014      9233  TIP3      H1              5.1974988207       29.3555187767      -43.5575130389  TIP3      9033            0.0000000000
     52015      9233  TIP3      H2              4.7969826567       27.9434212619      -43.1946283865  TIP3      9033            0.0000000000
     52016      9234  TIP3      OH2             5.9652221335       32.6231485249      -37.2270010142  TIP3      9034            0.0000000000
     52017      9234  TIP3      H1              6.4249422509       33.4269953966      -37.5154502572  TIP3      9034            0.0000000000
     52018      9234  TIP3      H2              6.5819926401       32.2795519990      -36.5571259161  TIP3      9034            0.0000000000
     52019      9235  TIP3      OH2             4.2003334777       33.4013259543      -44.0388903200  TIP3      9035            0.0000000000
     52020      9235  TIP3      H1              3.2337497681       33.5708475325      -43.9742340238  TIP3      9035            0.0000000000
     52021      9235  TIP3      H2              4.5652113905       34.2608961273      -43.7551205663  TIP3      9035            0.0000000000
     52022      9236  TIP3      OH2             9.4812695480       28.6139089200      -37.6159057327  TIP3      9036            0.0000000000
     52023      9236  TIP3      H1              9.1646626000       28.4260001227      -36.7076462558  TIP3      9036            0.0000000000
     52024      9236  TIP3      H2             10.1271789592       27.9083393865      -37.7812469198  TIP3      9036            0.0000000000
     52025      9237  TIP3      OH2            11.7398100666       29.6517148564      -48.4272183768  TIP3      9037            0.0000000000
     52026      9237  TIP3      H1             12.0753104773       29.1622740605      -47.6591405241  TIP3      9037            0.0000000000
     52027      9237  TIP3      H2             10.7972370182       29.4669131820      -48.3475641233  TIP3      9037            0.0000000000
     52028      9238  TIP3      OH2            12.3108154534       33.1774683641      -35.1322491265  TIP3      9038            0.0000000000
     52029      9238  TIP3      H1             11.6094435903       32.6986390133      -35.6084858489  TIP3      9038            0.0000000000
     52030      9238  TIP3      H2             12.4875248214       33.8940952185      -35.7790284156  TIP3      9038            0.0000000000
     52031      9239  TIP3      OH2            16.2919538553       34.0949827486      -48.3077897429  TIP3      9039            0.0000000000
     52032      9239  TIP3      H1             16.9944096393       34.7476455897      -48.4728757685  TIP3      9039            0.0000000000
     52033      9239  TIP3      H2             15.5664073208       34.6790387063      -47.9742793751  TIP3      9039            0.0000000000
     52034      9240  TIP3      OH2             0.3669474312       20.4546738782      -35.7379196677  TIP3      9040            0.0000000000
     52035      9240  TIP3      H1             -0.5396967986       20.8071673452      -35.7547399041  TIP3      9040            0.0000000000
     52036      9240  TIP3      H2              0.2555551710       19.6102923293      -35.2725107251  TIP3      9040            0.0000000000
     52037      9241  TIP3      OH2            12.6128726469       28.3360301029      -46.2761267622  TIP3      9041            0.0000000000
     52038      9241  TIP3      H1             12.3736893653       27.5239950023      -45.7899520555  TIP3      9041            0.0000000000
     52039      9241  TIP3      H2             13.5642416366       28.3749427334      -46.1038684263  TIP3      9041            0.0000000000
     52040      9242  TIP3      OH2            -0.0239053472       32.2355936847      -37.3086297127  TIP3      9042            0.0000000000
     52041      9242  TIP3      H1              0.2865452361       31.3169082516      -37.3006139776  TIP3      9042            0.0000000000
     52042      9242  TIP3      H2              0.2421024727       32.5307962858      -36.4294947860  TIP3      9042            0.0000000000
     52043      9243  TIP3      OH2             4.7357025639       30.3119798965      -47.5826381103  TIP3      9043            0.0000000000
     52044      9243  TIP3      H1              4.9936480973       29.7733500036      -46.8280186919  TIP3      9043            0.0000000000
     52045      9243  TIP3      H2              4.7900910911       31.2307427218      -47.2510545109  TIP3      9043            0.0000000000
     52046      9244  TIP3      OH2             1.2407815366       27.5204455677      -47.1179335656  TIP3      9044            0.0000000000
     52047      9244  TIP3      H1              0.5533543325       27.9362889953      -46.5592294520  TIP3      9044            0.0000000000
     52048      9244  TIP3      H2              1.7758701139       28.3031273637      -47.3562957023  TIP3      9044            0.0000000000
     52049      9245  TIP3      OH2             9.0988048734       20.2284252446      -36.7687681838  TIP3      9045            0.0000000000
     52050      9245  TIP3      H1              9.8150133655       20.2889605977      -36.1274261612  TIP3      9045            0.0000000000
     52051      9245  TIP3      H2              8.7158625889       19.3520665148      -36.5646329825  TIP3      9045            0.0000000000
     52052      9246  TIP3      OH2             9.8196549984       19.7937708745      -45.6389860648  TIP3      9046            0.0000000000
     52053      9246  TIP3      H1             10.0664274893       20.2479587007      -46.4736031015  TIP3      9046            0.0000000000
     52054      9246  TIP3      H2             10.4255821807       20.2382135785      -45.0389254774  TIP3      9046            0.0000000000
     52055      9247  TIP3      OH2             7.5394390669       31.9581641284      -46.8960596658  TIP3      9047            0.0000000000
     52056      9247  TIP3      H1              6.7157792346       32.4643702717      -46.7912095749  TIP3      9047            0.0000000000
     52057      9247  TIP3      H2              8.0572154326       32.5125111927      -47.4889466993  TIP3      9047            0.0000000000
     52058      9248  TIP3      OH2             7.0816750043       21.5418111526      -44.8625093736  TIP3      9048            0.0000000000
     52059      9248  TIP3      H1              7.8559261348       22.1379905684      -44.8304648388  TIP3      9048            0.0000000000
     52060      9248  TIP3      H2              6.8140433556       21.4293616504      -43.9312204007  TIP3      9048            0.0000000000
     52061      9249  TIP3      OH2             7.6285550259       22.5740413223      -35.6729728149  TIP3      9049            0.0000000000
     52062      9249  TIP3      H1              7.6996157666       23.1333760710      -34.8755619891  TIP3      9049            0.0000000000
     52063      9249  TIP3      H2              8.2898505540       21.8799757899      -35.5783378292  TIP3      9049            0.0000000000
     52064      9250  TIP3      OH2             7.9249717069       18.6004752641      -43.9821744202  TIP3      9050            0.0000000000
     52065      9250  TIP3      H1              7.6003227010       19.2608443045      -43.3451499001  TIP3      9050            0.0000000000
     52066      9250  TIP3      H2              8.6177026737       19.1484461690      -44.4281460636  TIP3      9050            0.0000000000
     52067      9251  TIP3      OH2             4.9007279551       33.0206032840      -46.8176595055  TIP3      9051            0.0000000000
     52068      9251  TIP3      H1              5.0786678831       33.8388359912      -47.3403022717  TIP3      9051            0.0000000000
     52069      9251  TIP3      H2              4.6442267446       33.3704539594      -45.9436860582  TIP3      9051            0.0000000000
     52070      9252  TIP3      OH2             3.5857426210       19.7454523637      -47.2318507497  TIP3      9052            0.0000000000
     52071      9252  TIP3      H1              3.5397478007       20.6323872513      -46.8353163716  TIP3      9052            0.0000000000
     52072      9252  TIP3      H2              4.4862867685       19.4729992080      -46.9791232528  TIP3      9052            0.0000000000
     52073      9253  TIP3      OH2            13.8029903578       20.4425096035      -34.8291992200  TIP3      9053            0.0000000000
     52074      9253  TIP3      H1             12.8763846017       20.7595763202      -34.9582687498  TIP3      9053            0.0000000000
     52075      9253  TIP3      H2             14.1049170150       20.4291972126      -35.7532476929  TIP3      9053            0.0000000000
     52076      9254  TIP3      OH2            12.4221037874       24.2334856433      -40.8179965327  TIP3      9054            0.0000000000
     52077      9254  TIP3      H1             11.5986949593       23.7857307073      -41.0961971190  TIP3      9054            0.0000000000
     52078      9254  TIP3      H2             12.9003737966       23.5443663883      -40.3061544107  TIP3      9054            0.0000000000
     52079      9255  TIP3      OH2             1.8605627493       30.1074710755      -48.1137601418  TIP3      9055            0.0000000000
     52080      9255  TIP3      H1              2.4943226456       30.8028752757      -47.9097201235  TIP3      9055            0.0000000000
     52081      9255  TIP3      H2              2.2777560013       29.7378738436      -48.9222388305  TIP3      9055            0.0000000000
     52082      9256  TIP3      OH2             0.1850391451       22.8319072640      -48.9567661936  TIP3      9056            0.0000000000
     52083      9256  TIP3      H1              0.1737108826       23.8018285755      -48.8646814133  TIP3      9056            0.0000000000
     52084      9256  TIP3      H2             -0.6512065807       22.6319375037      -49.4160691528  TIP3      9056            0.0000000000
     52085      9257  TIP3      OH2            13.4903823235       33.4628436914      -39.1478220676  TIP3      9057            0.0000000000
     52086      9257  TIP3      H1             13.3915717464       34.1556241679      -39.8328549061  TIP3      9057            0.0000000000
     52087      9257  TIP3      H2             14.4517481204       33.5376710374      -38.9722997060  TIP3      9057            0.0000000000
     52088      9258  TIP3      OH2             0.9731547973       17.6126371059      -40.3398963947  TIP3      9058            0.0000000000
     52089      9258  TIP3      H1              0.7812194323       17.6291310997      -41.3037452041  TIP3      9058            0.0000000000
     52090      9258  TIP3      H2              0.5604074760       16.7590325835      -40.0901979205  TIP3      9058            0.0000000000
     52091      9259  TIP3      OH2            -0.0726481695       31.5352437729      -44.1997346508  TIP3      9059            0.0000000000
     52092      9259  TIP3      H1             -0.9306777335       31.9839300615      -44.2449031238  TIP3      9059            0.0000000000
     52093      9259  TIP3      H2              0.4142911551       31.9948666473      -44.8915253838  TIP3      9059            0.0000000000
     52094      9260  TIP3      OH2            -0.8671447117       34.1843433966      -32.9202885838  TIP3      9060            0.0000000000
     52095      9260  TIP3      H1             -0.2627675714       33.9849868768      -32.1772957619  TIP3      9060            0.0000000000
     52096      9260  TIP3      H2             -1.2676111319       33.3143953406      -33.0966726026  TIP3      9060            0.0000000000
     52097      9261  TIP3      OH2             3.8218786811       33.0965398809      -31.3083902400  TIP3      9061            0.0000000000
     52098      9261  TIP3      H1              4.5785161528       32.5991201482      -30.9747455900  TIP3      9061            0.0000000000
     52099      9261  TIP3      H2              3.7919073521       32.8204564688      -32.2449584630  TIP3      9061            0.0000000000
     52100      9262  TIP3      OH2             7.8728557414       32.5571945934      -49.9827371818  TIP3      9062            0.0000000000
     52101      9262  TIP3      H1              7.2490309710       31.9085355248      -49.6383476863  TIP3      9062            0.0000000000
     52102      9262  TIP3      H2              8.6653370011       32.0239869468      -50.1154717293  TIP3      9062            0.0000000000
     52103      9263  TIP3      OH2            10.3158102075       31.4892951878      -32.5560552774  TIP3      9063            0.0000000000
     52104      9263  TIP3      H1             10.0025310808       30.6013166687      -32.2817174395  TIP3      9063            0.0000000000
     52105      9263  TIP3      H2             11.0864668904       31.6070028358      -31.9650152926  TIP3      9063            0.0000000000
     52106      9264  TIP3      OH2            12.1118743371       32.2473645933      -49.3090883949  TIP3      9064            0.0000000000
     52107      9264  TIP3      H1             12.6687435744       31.5246254379      -48.9763493886  TIP3      9064            0.0000000000
     52108      9264  TIP3      H2             12.7557882475       32.6933850409      -49.9305921890  TIP3      9064            0.0000000000
     52109      9265  TIP3      OH2            -0.9580617206       27.9569707794      -31.9176735940  TIP3      9065            0.0000000000
     52110      9265  TIP3      H1             -0.7910404010       27.0456772471      -32.2192405340  TIP3      9065            0.0000000000
     52111      9265  TIP3      H2             -1.6965910226       28.2146888889      -32.4938751358  TIP3      9065            0.0000000000
     52112      9266  TIP3      OH2             3.4729960629       28.2451388729      -49.8070488687  TIP3      9066            0.0000000000
     52113      9266  TIP3      H1              3.5543927654       27.4800362554      -49.2273530300  TIP3      9066            0.0000000000
     52114      9266  TIP3      H2              4.1532635694       28.1442760296      -50.4812265788  TIP3      9066            0.0000000000
     52115      9267  TIP3      OH2             5.7665036583       27.9534332339      -32.5370404088  TIP3      9067            0.0000000000
     52116      9267  TIP3      H1              5.4252151734       28.2611381302      -33.3987228934  TIP3      9067            0.0000000000
     52117      9267  TIP3      H2              5.8340172196       26.9732925154      -32.6414173228  TIP3      9067            0.0000000000
     52118      9268  TIP3      OH2            11.4569912661       27.8046971371      -35.1409306887  TIP3      9068            0.0000000000
     52119      9268  TIP3      H1             12.2454821527       28.3867091592      -35.2020625909  TIP3      9068            0.0000000000
     52120      9268  TIP3      H2             10.7581487639       28.4735978539      -35.1060073174  TIP3      9068            0.0000000000
     52121      9269  TIP3      OH2            -0.0328592182       25.1824498708      -32.5385292849  TIP3      9069            0.0000000000
     52122      9269  TIP3      H1              0.3840800835       24.3193294532      -32.6288470815  TIP3      9069            0.0000000000
     52123      9269  TIP3      H2             -0.2668628376       25.1884236028      -31.5965282945  TIP3      9069            0.0000000000
     52124      9270  TIP3      OH2             4.5753593739       26.2982756039      -47.4928963892  TIP3      9070            0.0000000000
     52125      9270  TIP3      H1              4.0999189788       25.7985109293      -46.8084156065  TIP3      9070            0.0000000000
     52126      9270  TIP3      H2              4.9222461773       25.5819168331      -48.0690194532  TIP3      9070            0.0000000000
     52127      9271  TIP3      OH2             3.8633783809       24.1260264954      -35.1859581378  TIP3      9071            0.0000000000
     52128      9271  TIP3      H1              3.2674380241       24.8477959922      -34.9292333103  TIP3      9071            0.0000000000
     52129      9271  TIP3      H2              4.2621767149       24.4943427393      -35.9926969930  TIP3      9071            0.0000000000
     52130      9272  TIP3      OH2             5.7744630795       24.5328041946      -49.1619962054  TIP3      9072            0.0000000000
     52131      9272  TIP3      H1              5.5403841329       24.4053052990      -50.0979606509  TIP3      9072            0.0000000000
     52132      9272  TIP3      H2              6.7486238308       24.6089502779      -49.1395245395  TIP3      9072            0.0000000000
     52133      9273  TIP3      OH2             8.9389505083       26.6972366374      -31.8461899844  TIP3      9073            0.0000000000
     52134      9273  TIP3      H1              9.8953010381       26.6828503474      -31.9722636953  TIP3      9073            0.0000000000
     52135      9273  TIP3      H2              8.7673721845       25.9286773245      -31.2783216188  TIP3      9073            0.0000000000
     52136      9274  TIP3      OH2            14.7998982321       26.5846660914       50.2207834027  TIP3      9074            0.0000000000
     52137      9274  TIP3      H1             14.8524374679       26.3928966855       49.2913422093  TIP3      9074            0.0000000000
     52138      9274  TIP3      H2             14.9858719316       27.5579901511       50.1479370686  TIP3      9074            0.0000000000
     52139      9275  TIP3      OH2             4.2707604548       21.5050327560      -34.1304647433  TIP3      9075            0.0000000000
     52140      9275  TIP3      H1              4.3870430274       20.7964752490      -34.7902194253  TIP3      9075            0.0000000000
     52141      9275  TIP3      H2              4.2255354373       22.3164099865      -34.6789349301  TIP3      9075            0.0000000000
     52142      9276  TIP3      OH2             4.6746510713       19.8870044286      -36.5729063596  TIP3      9076            0.0000000000
     52143      9276  TIP3      H1              5.1823417502       20.3523783244      -37.2800772775  TIP3      9076            0.0000000000
     52144      9276  TIP3      H2              3.7806223293       19.8097106389      -36.9780539797  TIP3      9076            0.0000000000
     52145      9277  TIP3      OH2             6.2106063855       25.3786140945      -36.3295648511  TIP3      9077            0.0000000000
     52146      9277  TIP3      H1              6.9668835195       25.2124348571      -36.9029211400  TIP3      9077            0.0000000000
     52147      9277  TIP3      H2              5.8464809444       26.2125475955      -36.6691704790  TIP3      9077            0.0000000000
     52148      9278  TIP3      OH2            10.6091542907       23.1266060664      -31.3638640523  TIP3      9078            0.0000000000
     52149      9278  TIP3      H1             10.8440367934       22.1917751052      -31.4583486468  TIP3      9078            0.0000000000
     52150      9278  TIP3      H2             11.4729987187       23.5709527828      -31.3348044202  TIP3      9078            0.0000000000
     52151      9279  TIP3      OH2            11.9476856587       25.9219361159      -33.2012448508  TIP3      9079            0.0000000000
     52152      9279  TIP3      H1             11.6979039871       26.6430505545      -33.8193649886  TIP3      9079            0.0000000000
     52153      9279  TIP3      H2             12.9073455897       25.8908174738      -33.3906904202  TIP3      9079            0.0000000000
     52154      9280  TIP3      OH2             2.7314684862       22.7567414972      -32.2073212349  TIP3      9080            0.0000000000
     52155      9280  TIP3      H1              1.9625780347       22.1779222649      -32.3749118629  TIP3      9080            0.0000000000
     52156      9280  TIP3      H2              3.3863564390       22.3857643319      -32.8284048355  TIP3      9080            0.0000000000
     52157      9281  TIP3      OH2             5.4646035174       17.3237297092      -36.1891037180  TIP3      9081            0.0000000000
     52158      9281  TIP3      H1              5.2775919811       18.2856851691      -36.2823604039  TIP3      9081            0.0000000000
     52159      9281  TIP3      H2              4.7141030806       16.9561885732      -36.6876300411  TIP3      9081            0.0000000000
     52160      9282  TIP3      OH2             6.7333238857       21.6521888914      -32.5575970057  TIP3      9082            0.0000000000
     52161      9282  TIP3      H1              6.4182046848       21.4202817475      -31.6622232558  TIP3      9082            0.0000000000
     52162      9282  TIP3      H2              5.9516297200       21.4497591463      -33.0987990076  TIP3      9082            0.0000000000
     52163      9283  TIP3      OH2             9.4552574141       20.7949135784      -33.4628157049  TIP3      9083            0.0000000000
     52164      9283  TIP3      H1              8.4898922772       20.8513774530      -33.3570872788  TIP3      9083            0.0000000000
     52165      9283  TIP3      H2              9.7152003278       20.1530261184      -32.7738486673  TIP3      9083            0.0000000000
     52166      9284  TIP3      OH2            11.0346226237       19.4087602737      -31.5599363204  TIP3      9084            0.0000000000
     52167      9284  TIP3      H1             10.9833343912       18.4314507119      -31.5274311774  TIP3      9084            0.0000000000
     52168      9284  TIP3      H2             10.7816099602       19.6989324779      -30.6603092570  TIP3      9084            0.0000000000
     52169      9285  TIP3      OH2             0.8053885344       20.6937781107      -32.4504734201  TIP3      9085            0.0000000000
     52170      9285  TIP3      H1              1.0573390731       19.9577451549      -33.0353144714  TIP3      9085            0.0000000000
     52171      9285  TIP3      H2              0.7186297569       20.2460053893      -31.5861748368  TIP3      9085            0.0000000000
     52172      9286  TIP3      OH2             5.6780560791       16.7176337942      -33.4805053632  TIP3      9086            0.0000000000
     52173      9286  TIP3      H1              6.3566182269       16.0138568367      -33.4983983233  TIP3      9086            0.0000000000
     52174      9286  TIP3      H2              5.5668473631       16.8579177215      -34.4388821342  TIP3      9086            0.0000000000
     52175      9287  TIP3      OH2             6.0357028714       18.3301516061      -31.3657466916  TIP3      9087            0.0000000000
     52176      9287  TIP3      H1              5.8645817347       17.8239892296      -32.1986941274  TIP3      9087            0.0000000000
     52177      9287  TIP3      H2              5.4385191253       19.0959324485      -31.4683460694  TIP3      9087            0.0000000000
     52178      9288  TIP3      OH2             5.5272606648       35.2380753558      -48.2227003896  TIP3      9088            0.0000000000
     52179      9288  TIP3      H1              6.4956025942       35.3473028199      -48.1334724093  TIP3      9088            0.0000000000
     52180      9288  TIP3      H2              5.3029309962       35.8856633513      -48.9073550706  TIP3      9088            0.0000000000
     52181      9289  TIP3      OH2            -0.8473355679       29.8120633327      -48.6377672669  TIP3      9089            0.0000000000
     52182      9289  TIP3      H1              0.1186294815       29.9129537525      -48.4968307717  TIP3      9089            0.0000000000
     52183      9289  TIP3      H2             -0.8621271983       29.2104043523      -49.3966711282  TIP3      9089            0.0000000000
     52184      9290  TIP3      OH2            -2.1262871106       35.2229245608      -43.7719689368  TIP3      9090            0.0000000000
     52185      9290  TIP3      H1             -2.8667681799       34.7514423211      -44.2227560855  TIP3      9090            0.0000000000
     52186      9290  TIP3      H2             -1.8818119772       34.5704194189      -43.0902140756  TIP3      9090            0.0000000000
     52187      9291  TIP3      OH2            -1.3370165750       33.3393461768      -41.8801575751  TIP3      9091            0.0000000000
     52188      9291  TIP3      H1             -1.6912743610       32.4601339968      -41.6795348738  TIP3      9091            0.0000000000
     52189      9291  TIP3      H2             -1.1099141449       33.6672729467      -40.9957791184  TIP3      9091            0.0000000000
     52190      9292  TIP3      OH2            16.2003769862       34.1447616594      -38.9561353371  TIP3      9092            0.0000000000
     52191      9292  TIP3      H1             16.2341657919       34.2922208223      -37.9949889699  TIP3      9092            0.0000000000
     52192      9292  TIP3      H2             16.9106225052       34.7181971718      -39.2587806139  TIP3      9092            0.0000000000
     52193      9293  TIP3      OH2            15.8056700158       33.7062117015      -36.0104197267  TIP3      9093            0.0000000000
     52194      9293  TIP3      H1             15.3062958981       32.9522586211      -36.3867873653  TIP3      9093            0.0000000000
     52195      9293  TIP3      H2             16.2720379685       33.2583705218      -35.2871341103  TIP3      9093            0.0000000000
     52196      9294  TIP3      OH2            14.2178689967       29.4523188273      -31.3338446660  TIP3      9094            0.0000000000
     52197      9294  TIP3      H1             13.3117860014       29.4245903818      -30.9714655672  TIP3      9094            0.0000000000
     52198      9294  TIP3      H2             14.5909809881       30.2571670836      -30.9247208395  TIP3      9094            0.0000000000
     52199      9295  TIP3      OH2            15.5329499246       27.7887551050      -45.8926109103  TIP3      9095            0.0000000000
     52200      9295  TIP3      H1             16.4040247787       28.1743875256      -45.7121498962  TIP3      9095            0.0000000000
     52201      9295  TIP3      H2             15.5247773725       27.0623027820      -45.2324534185  TIP3      9095            0.0000000000
     52202      9296  TIP3      OH2            15.8916724227       25.8739157427      -44.0109074947  TIP3      9096            0.0000000000
     52203      9296  TIP3      H1             15.1456278518       25.3518700118      -43.6362385644  TIP3      9096            0.0000000000
     52204      9296  TIP3      H2             16.4914894681       25.9870867817      -43.2492093285  TIP3      9096            0.0000000000
     52205      9297  TIP3      OH2            15.6512234873       28.5467511195      -39.0389156757  TIP3      9097            0.0000000000
     52206      9297  TIP3      H1             16.4669232936       28.1720826526      -39.4150752597  TIP3      9097            0.0000000000
     52207      9297  TIP3      H2             15.7961983445       29.5015938507      -39.2070188040  TIP3      9097            0.0000000000
     52208      9298  TIP3      OH2            14.2068629306       31.4670920501      -36.7656641525  TIP3      9098            0.0000000000
     52209      9298  TIP3      H1             13.5158605050       31.8014883724      -36.1749527416  TIP3      9098            0.0000000000
     52210      9298  TIP3      H2             13.6617369229       31.0573649865      -37.4731743075  TIP3      9098            0.0000000000
     52211      9299  TIP3      OH2            16.2219366842       25.7099800941      -47.6495111550  TIP3      9099            0.0000000000
     52212      9299  TIP3      H1             15.6214228637       26.0367788108      -48.3529986104  TIP3      9099            0.0000000000
     52213      9299  TIP3      H2             16.0935613426       26.3970255829      -46.9674272670  TIP3      9099            0.0000000000
     52214      9300  TIP3      OH2            14.5253328070       22.9862080288      -48.7559218480  TIP3      9100            0.0000000000
     52215      9300  TIP3      H1             14.6937716185       23.6135044678      -49.4835845601  TIP3      9100            0.0000000000
     52216      9300  TIP3      H2             14.5654438566       22.1283815129      -49.2213712753  TIP3      9100            0.0000000000
     52217      9301  TIP3      OH2            13.7210452488       24.3270571490      -43.4327381220  TIP3      9101            0.0000000000
     52218      9301  TIP3      H1             13.5695830411       23.3738319109      -43.4843552390  TIP3      9101            0.0000000000
     52219      9301  TIP3      H2             13.3880245800       24.5397490759      -42.5436468346  TIP3      9101            0.0000000000
     52220      9302  TIP3      OH2            -1.2775452288       26.4175106995      -39.3878750514  TIP3      9102            0.0000000000
     52221      9302  TIP3      H1             -1.1015736420       26.3344459730      -40.3512910559  TIP3      9102            0.0000000000
     52222      9302  TIP3      H2             -0.3841407725       26.2376647150      -39.0358978708  TIP3      9102            0.0000000000
     52223      9303  TIP3      OH2            14.5768590718       26.2978784767      -33.7573777041  TIP3      9103            0.0000000000
     52224      9303  TIP3      H1             15.1868571963       25.5409465192      -33.6265711490  TIP3      9103            0.0000000000
     52225      9303  TIP3      H2             15.1817884763       27.0703301872      -33.7553330938  TIP3      9103            0.0000000000
     52226      9304  TIP3      OH2            16.0783923413       24.1759619148      -33.1082485573  TIP3      9104            0.0000000000
     52227      9304  TIP3      H1             15.1952536977       23.7775003242      -33.2625908162  TIP3      9104            0.0000000000
     52228      9304  TIP3      H2             16.6482615289       23.3926693891      -33.1845418466  TIP3      9104            0.0000000000
     52229      9305  TIP3      OH2            13.7977525498       20.2755317937      -49.9539039655  TIP3      9105            0.0000000000
     52230      9305  TIP3      H1             14.3842145693       19.8521208460      -49.2964051310  TIP3      9105            0.0000000000
     52231      9305  TIP3      H2             12.9219811343       19.9089081145      -49.7494875246  TIP3      9105            0.0000000000
     52232      9306  TIP3      OH2            13.3705867245       21.8970398338      -45.0071978016  TIP3      9106            0.0000000000
     52233      9306  TIP3      H1             13.6797285368       20.9731194779      -44.8608598209  TIP3      9106            0.0000000000
     52234      9306  TIP3      H2             14.1698272613       22.3051153023      -45.3714014094  TIP3      9106            0.0000000000
     52235      9307  TIP3      OH2            14.0228891979       22.4558174273      -39.5458235268  TIP3      9107            0.0000000000
     52236      9307  TIP3      H1             14.9835121502       22.6865990268      -39.5598855803  TIP3      9107            0.0000000000
     52237      9307  TIP3      H2             13.8354349228       22.5970188134      -38.6060936819  TIP3      9107            0.0000000000
     52238      9308  TIP3      OH2            14.0899246708       23.1785808870      -36.7633248100  TIP3      9108            0.0000000000
     52239      9308  TIP3      H1             13.2042902248       23.4664880974      -36.4507464954  TIP3      9108            0.0000000000
     52240      9308  TIP3      H2             14.5224491431       24.0358046924      -36.9878406152  TIP3      9108            0.0000000000
     52241      9309  TIP3      OH2            -1.6585432606       21.7197818222      -33.2272265209  TIP3      9109            0.0000000000
     52242      9309  TIP3      H1             -0.7215193701       21.5031730002      -33.0423141189  TIP3      9109            0.0000000000
     52243      9309  TIP3      H2             -2.1173102348       20.8929532449      -32.9625677214  TIP3      9109            0.0000000000
     52244      9310  TIP3      OH2            16.3608445482       17.2436893366      -31.4275895431  TIP3      9110            0.0000000000
     52245      9310  TIP3      H1             16.7138206334       16.5820681743      -32.0476010980  TIP3      9110            0.0000000000
     52246      9310  TIP3      H2             16.4627615058       18.0575404615      -31.9604353503  TIP3      9110            0.0000000000
     52247      9311  TIP3      OH2            14.0628416056       19.1944360475      -44.9430604568  TIP3      9111            0.0000000000
     52248      9311  TIP3      H1             14.2690693728       18.7602057250      -44.0870984094  TIP3      9111            0.0000000000
     52249      9311  TIP3      H2             13.4441484366       18.5681125695      -45.3809973127  TIP3      9111            0.0000000000
     52250      9312  TIP3      OH2            -0.4593995206       20.0073536356      -40.3854075030  TIP3      9112            0.0000000000
     52251      9312  TIP3      H1             -0.0011767479       19.1793028843      -40.1309477167  TIP3      9112            0.0000000000
     52252      9312  TIP3      H2              0.0929841905       20.6975145031      -39.9964427014  TIP3      9112            0.0000000000
     52253      9313  TIP3      OH2            -2.1788531190       23.0097525095      -39.3506099312  TIP3      9113            0.0000000000
     52254      9313  TIP3      H1             -1.6149079313       22.7574303025      -40.1100916080  TIP3      9113            0.0000000000
     52255      9313  TIP3      H2             -1.7094429156       23.8122275932      -39.0809389057  TIP3      9113            0.0000000000
     52256      9314  TIP3      OH2            15.8813310244       19.3416747655      -33.0725744736  TIP3      9114            0.0000000000
     52257      9314  TIP3      H1             14.9427928608       19.6135639698      -33.1238423506  TIP3      9114            0.0000000000
     52258      9314  TIP3      H2             15.9139555838       18.7896223924      -33.8687852565  TIP3      9114            0.0000000000
     52259      9315  TIP3      OH2            15.8932333567       19.2472032637      -48.3774646752  TIP3      9115            0.0000000000
     52260      9315  TIP3      H1             16.3139877769       18.5629413245      -48.9145432298  TIP3      9115            0.0000000000
     52261      9315  TIP3      H2             16.5917980861       19.9214636573      -48.3773807984  TIP3      9115            0.0000000000
     52262      9316  TIP3      OH2            -1.8117085373       19.2728412551      -45.2758223139  TIP3      9116            0.0000000000
     52263      9316  TIP3      H1             -2.7534948277       19.4509772184      -45.4162663633  TIP3      9116            0.0000000000
     52264      9316  TIP3      H2             -1.4003261142       19.7601331174      -46.0110308652  TIP3      9116            0.0000000000
     52265      9317  TIP3      OH2            12.9316793010       34.2119468674      -43.3404315228  TIP3      9117            0.0000000000
     52266      9317  TIP3      H1             13.6086503384       33.9057383949      -43.9660653464  TIP3      9117            0.0000000000
     52267      9317  TIP3      H2             13.4414703437       34.7247630079      -42.6925705548  TIP3      9117            0.0000000000
     52268      9318  TIP3      OH2            -1.8654042817       17.9166173680      -36.9837299658  TIP3      9118            0.0000000000
     52269      9318  TIP3      H1             -2.5323935360       17.7277580017      -36.3005204145  TIP3      9118            0.0000000000
     52270      9318  TIP3      H2             -2.3222055651       18.5938570312      -37.5223553713  TIP3      9118            0.0000000000
     52271      9319  TIP3      OH2             0.3764598150       31.1127907757      -32.8204400512  TIP3      9119            0.0000000000
     52272      9319  TIP3      H1             -0.4615567705       31.3402164891      -33.2570891044  TIP3      9119            0.0000000000
     52273      9319  TIP3      H2              0.1082373462       31.0439299639      -31.9015364331  TIP3      9119            0.0000000000
     52274      9320  TIP3      OH2             3.2728942052       32.1361407291      -36.5399213593  TIP3      9120            0.0000000000
     52275      9320  TIP3      H1              2.9562151226       33.0118798577      -36.8066269672  TIP3      9120            0.0000000000
     52276      9320  TIP3      H2              4.2004310679       32.2108243424      -36.8447683213  TIP3      9120            0.0000000000
     52277      9321  TIP3      OH2             7.5924813222       33.5584793491      -33.6395352687  TIP3      9121            0.0000000000
     52278      9321  TIP3      H1              7.7336473280       33.2006793683      -32.7326352957  TIP3      9121            0.0000000000
     52279      9321  TIP3      H2              8.4955273676       33.8591751086      -33.8881832719  TIP3      9121            0.0000000000
     52280      9322  TIP3      OH2             9.8940682638       34.8796898998      -34.3376638123  TIP3      9122            0.0000000000
     52281      9322  TIP3      H1             10.6124544039       34.2750915387      -34.5718345519  TIP3      9122            0.0000000000
     52282      9322  TIP3      H2             10.2573660663       35.2381185163      -33.5019200495  TIP3      9122            0.0000000000
     52283      9323  TIP3      OH2            14.9021538144       17.4323443307      -35.2178262804  TIP3      9123            0.0000000000
     52284      9323  TIP3      H1             14.0739243065       17.7306158038      -35.6302268665  TIP3      9123            0.0000000000
     52285      9323  TIP3      H2             15.0672565109       16.6094265851      -35.7344027693  TIP3      9123            0.0000000000
     52286      9324  TIP3      OH2             0.6779477725       35.3480163955      -36.5563461774  TIP3      9124            0.0000000000
     52287      9324  TIP3      H1             -0.0415122071       35.8669465839      -36.9382807425  TIP3      9124            0.0000000000
     52288      9324  TIP3      H2              0.3803818134       35.1916810233      -35.6484534296  TIP3      9124            0.0000000000
     52289      9325  TIP3      OH2             3.1700990071       34.9319417816      -37.4711189028  TIP3      9125            0.0000000000
     52290      9325  TIP3      H1              2.2806954171       35.0993550189      -37.0806323323  TIP3      9125            0.0000000000
     52291      9325  TIP3      H2              3.1199455937       35.5204694210      -38.2452683606  TIP3      9125            0.0000000000
     52292      9326  TIP3      OH2             7.8727130984       34.8526156966      -38.2793023746  TIP3      9126            0.0000000000
     52293      9326  TIP3      H1              7.4192927193       35.3916933256      -38.9488342891  TIP3      9126            0.0000000000
     52294      9326  TIP3      H2              8.0190014857       35.5115230288      -37.5672704591  TIP3      9126            0.0000000000
     52295      9327  TIP3      OH2            10.1639231664       33.6643160093      -37.2743981850  TIP3      9127            0.0000000000
     52296      9327  TIP3      H1              9.3113831063       33.9424774669      -37.6436497545  TIP3      9127            0.0000000000
     52297      9327  TIP3      H2             10.6507995898       34.5069659402      -37.3534372679  TIP3      9127            0.0000000000
     52298      9328  TIP3      OH2            12.7597395193       35.2667116947      -37.0437107694  TIP3      9128            0.0000000000
     52299      9328  TIP3      H1             12.6827194305       36.2266469326      -37.2711522751  TIP3      9128            0.0000000000
     52300      9328  TIP3      H2             12.9462389335       34.8769720136      -37.9214002498  TIP3      9128            0.0000000000
     52301      9329  TIP3      OH2             0.1555051379       34.0189274932      -39.6002352407  TIP3      9129            0.0000000000
     52302      9329  TIP3      H1              0.0728160237       33.5546852886      -38.7386481857  TIP3      9129            0.0000000000
     52303      9329  TIP3      H2              0.9717193691       33.6363929716      -39.9890880457  TIP3      9129            0.0000000000
     52304      9330  TIP3      OH2             2.2358847878       32.7218896542      -40.9474397423  TIP3      9130            0.0000000000
     52305      9330  TIP3      H1              2.0710218793       31.7884822532      -40.7157058226  TIP3      9130            0.0000000000
     52306      9330  TIP3      H2              3.0942145466       32.8729531978      -40.4984612193  TIP3      9130            0.0000000000
     52307      9331  TIP3      OH2             4.8448848654       33.2122171344      -40.0695367481  TIP3      9131            0.0000000000
     52308      9331  TIP3      H1              4.9943874831       32.2852022726      -40.3318546280  TIP3      9131            0.0000000000
     52309      9331  TIP3      H2              4.8845379611       33.1625556534      -39.1035167863  TIP3      9131            0.0000000000
     52310      9332  TIP3      OH2             8.2904164962       18.8601721232      -40.9419087882  TIP3      9132            0.0000000000
     52311      9332  TIP3      H1              7.6165690731       18.2198043278      -40.6543016288  TIP3      9132            0.0000000000
     52312      9332  TIP3      H2              8.8440048200       18.3229199079      -41.5196694840  TIP3      9132            0.0000000000
     52313      9333  TIP3      OH2            13.4278577280       16.9029416580      -40.8736411928  TIP3      9133            0.0000000000
     52314      9333  TIP3      H1             14.0395938763       17.4980404861      -41.3797452432  TIP3      9133            0.0000000000
     52315      9333  TIP3      H2             12.5452615188       17.2666372973      -41.1022908286  TIP3      9133            0.0000000000
     52316      9334  TIP3      OH2            15.0947650535       18.1533529313      -42.5939304625  TIP3      9134            0.0000000000
     52317      9334  TIP3      H1             15.7827508271       17.5784477115      -43.0092450597  TIP3      9134            0.0000000000
     52318      9334  TIP3      H2             15.6039090992       18.9901797401      -42.4872564236  TIP3      9134            0.0000000000
     52319      9335  TIP3      OH2             0.6654485788       17.4840682240      -43.0880175394  TIP3      9135            0.0000000000
     52320      9335  TIP3      H1             -0.1313810284       17.2898333924      -43.6183281213  TIP3      9135            0.0000000000
     52321      9335  TIP3      H2              1.1210108817       16.6209691883      -43.1427449235  TIP3      9135            0.0000000000
     52322      9336  TIP3      OH2            -0.5900899154       17.2381771182      -47.4092702789  TIP3      9136            0.0000000000
     52323      9336  TIP3      H1             -0.0587350768       17.9141406672      -47.8755739709  TIP3      9136            0.0000000000
     52324      9336  TIP3      H2             -1.1084717742       17.7947447869      -46.8012076017  TIP3      9136            0.0000000000
     52325      9337  TIP3      OH2             5.1309676248       17.4091567986      -43.3009012270  TIP3      9137            0.0000000000
     52326      9337  TIP3      H1              6.0319005648       17.7658966055      -43.3753688549  TIP3      9137            0.0000000000
     52327      9337  TIP3      H2              5.0994213304       17.1894705512      -42.3707232913  TIP3      9137            0.0000000000
     52328      9338  TIP3      OH2            10.8501568361       17.4271759244      -41.6765879392  TIP3      9138            0.0000000000
     52329      9338  TIP3      H1             10.7946639102       17.5409496217      -42.6345499090  TIP3      9138            0.0000000000
     52330      9338  TIP3      H2             10.4614499684       16.5270983589      -41.5431519194  TIP3      9138            0.0000000000
     52331      9339  TIP3      OH2            12.1325320542       17.4532418752      -46.0043368702  TIP3      9139            0.0000000000
     52332      9339  TIP3      H1             11.3841424934       18.0443192743      -46.1787785031  TIP3      9139            0.0000000000
     52333      9339  TIP3      H2             11.6787718116       16.6065368723      -45.7884774292  TIP3      9139            0.0000000000
     52334      9340  TIP3      OH2            -0.6066463724       33.1904882631      -46.4339398042  TIP3      9140            0.0000000000
     52335      9340  TIP3      H1             -1.3527555666       33.1761005675      -47.0511984047  TIP3      9140            0.0000000000
     52336      9340  TIP3      H2             -0.6462820080       34.1151980173      -46.1572400044  TIP3      9140            0.0000000000
     52337      9341  TIP3      OH2             1.2371959634       19.1416427601      -48.8483881678  TIP3      9141            0.0000000000
     52338      9341  TIP3      H1              1.7686220587       18.5086870611      -49.3428162406  TIP3      9141            0.0000000000
     52339      9341  TIP3      H2              1.8960028119       19.5098229518      -48.2313361117  TIP3      9141            0.0000000000
     52340      9342  TIP3      OH2             6.3088216467       19.4427041137      -46.4595870880  TIP3      9142            0.0000000000
     52341      9342  TIP3      H1              6.5397899722       18.8470092962      -45.7285770325  TIP3      9142            0.0000000000
     52342      9342  TIP3      H2              6.3440507838       20.2908052484      -45.9632102187  TIP3      9142            0.0000000000
     52343      9343  TIP3      OH2             8.2134818186       34.4860553237      -48.0210218772  TIP3      9143            0.0000000000
     52344      9343  TIP3      H1              9.1482956141       34.7502530233      -48.1915988900  TIP3      9143            0.0000000000
     52345      9343  TIP3      H2              8.0314692767       33.9882732785      -48.8447114621  TIP3      9143            0.0000000000
     52346      9344  TIP3      OH2            14.9499908502       34.0007864356      -45.3025510338  TIP3      9144            0.0000000000
     52347      9344  TIP3      H1             14.7049390578       33.2200148425      -45.8566164011  TIP3      9144            0.0000000000
     52348      9344  TIP3      H2             14.8248439107       34.7473708285      -45.9233702044  TIP3      9144            0.0000000000
     52349      9345  TIP3      OH2             0.5476260136       18.0269658651      -33.6378215468  TIP3      9145            0.0000000000
     52350      9345  TIP3      H1              0.1575766730       17.2317741985      -33.2330295414  TIP3      9145            0.0000000000
     52351      9345  TIP3      H2              1.4560912313       17.9833837641      -33.2538480181  TIP3      9145            0.0000000000
     52352      9346  TIP3      OH2             2.5478754557       17.4091059809      -31.9911539193  TIP3      9146            0.0000000000
     52353      9346  TIP3      H1              3.4412077572       17.0721797925      -32.2073490842  TIP3      9146            0.0000000000
     52354      9346  TIP3      H2              2.1743652326       16.6012371948      -31.5891691707  TIP3      9146            0.0000000000
     52355      9347  TIP3      OH2             1.4871977707       34.3687273628      -49.0942327776  TIP3      9147            0.0000000000
     52356      9347  TIP3      H1              0.9289326552       34.3830029374      -48.3116203982  TIP3      9147            0.0000000000
     52357      9347  TIP3      H2              1.9906530592       33.5479318695      -49.0571422167  TIP3      9147            0.0000000000
     52358      9348  TIP3      OH2            10.9565537609       16.7052793675      -31.8472133963  TIP3      9148            0.0000000000
     52359      9348  TIP3      H1             11.0416994074       16.2267378031      -30.9987083573  TIP3      9148            0.0000000000
     52360      9348  TIP3      H2             11.8736712494       16.6613011996      -32.1875789652  TIP3      9148            0.0000000000
     52361      9349  TIP3      OH2            14.1606951067       32.7467687818      -33.2112657212  TIP3      9149            0.0000000000
     52362      9349  TIP3      H1             13.3569302099       32.6093152322      -33.7585458483  TIP3      9149            0.0000000000
     52363      9349  TIP3      H2             14.0423551975       33.6947866433      -32.9932070770  TIP3      9149            0.0000000000
     52364      9350  TIP3      OH2            28.6082566447       26.6270737869      -43.2443960840  TIP3      9150            0.0000000000
     52365      9350  TIP3      H1             28.5904478792       27.6073348295      -43.2677867514  TIP3      9150            0.0000000000
     52366      9350  TIP3      H2             27.8736067587       26.3919140357      -43.8330941950  TIP3      9150            0.0000000000
     52367      9351  TIP3      OH2            27.4614628566       25.8780685620      -39.7268199831  TIP3      9151            0.0000000000
     52368      9351  TIP3      H1             27.4458644295       25.2276328334      -39.0107060053  TIP3      9151            0.0000000000
     52369      9351  TIP3      H2             27.1111871147       25.3692981495      -40.4780673424  TIP3      9151            0.0000000000
     52370      9352  TIP3      OH2            19.8125335823       25.5555946337      -38.1776654703  TIP3      9152            0.0000000000
     52371      9352  TIP3      H1             19.8965103935       24.8668788542      -37.4852696168  TIP3      9152            0.0000000000
     52372      9352  TIP3      H2             20.5626379910       26.1251416410      -37.9534543441  TIP3      9152            0.0000000000
     52373      9353  TIP3      OH2            31.1451027829       28.8268945641      -41.4444478676  TIP3      9153            0.0000000000
     52374      9353  TIP3      H1             30.7340936353       28.1092408252      -40.9527184272  TIP3      9153            0.0000000000
     52375      9353  TIP3      H2             31.1704532186       29.5351969423      -40.7746207661  TIP3      9153            0.0000000000
     52376      9354  TIP3      OH2            20.7384172350       30.0035465737      -39.6783790597  TIP3      9154            0.0000000000
     52377      9354  TIP3      H1             20.4296343871       29.1330161256      -39.9940197567  TIP3      9154            0.0000000000
     52378      9354  TIP3      H2             21.6939579764       29.8209866550      -39.6322954575  TIP3      9154            0.0000000000
     52379      9355  TIP3      OH2            17.3722277259       23.5547391965      -44.1892343739  TIP3      9155            0.0000000000
     52380      9355  TIP3      H1             16.9436488458       24.4289310353      -44.2443310799  TIP3      9155            0.0000000000
     52381      9355  TIP3      H2             16.8164296290       23.0189398722      -44.7699530231  TIP3      9155            0.0000000000
     52382      9356  TIP3      OH2            18.0904697641       25.7846282040      -42.0354321002  TIP3      9156            0.0000000000
     52383      9356  TIP3      H1             18.3664592946       24.9627931552      -41.5876508413  TIP3      9156            0.0000000000
     52384      9356  TIP3      H2             18.7823383834       25.8918722156      -42.7056546171  TIP3      9156            0.0000000000
     52385      9357  TIP3      OH2            28.2513943458       33.9759028041      -41.2062428096  TIP3      9157            0.0000000000
     52386      9357  TIP3      H1             28.9112275225       33.2968938564      -41.4933075120  TIP3      9157            0.0000000000
     52387      9357  TIP3      H2             28.0478508299       33.6434883107      -40.3333424946  TIP3      9157            0.0000000000
     52388      9358  TIP3      OH2            25.8355202880       28.2742106065      -39.2543166340  TIP3      9158            0.0000000000
     52389      9358  TIP3      H1             26.1727542117       27.6506787218      -39.9149207116  TIP3      9158            0.0000000000
     52390      9358  TIP3      H2             26.6472382828       28.4349525491      -38.7419846959  TIP3      9158            0.0000000000
     52391      9359  TIP3      OH2            34.4740295986       19.9299093048      -38.5321657929  TIP3      9159            0.0000000000
     52392      9359  TIP3      H1             34.5971682961       20.5342348076      -37.7706607042  TIP3      9159            0.0000000000
     52393      9359  TIP3      H2             35.0228614480       20.3737400265      -39.1978927804  TIP3      9159            0.0000000000
     52394      9360  TIP3      OH2            29.0031871272       22.7459257447      -38.9423792419  TIP3      9160            0.0000000000
     52395      9360  TIP3      H1             29.1726540402       21.7872639137      -38.9372864028  TIP3      9160            0.0000000000
     52396      9360  TIP3      H2             28.9001168090       22.8852493636      -39.9036327058  TIP3      9160            0.0000000000
     52397      9361  TIP3      OH2            22.1137920501       20.8366932963      -41.7296783970  TIP3      9161            0.0000000000
     52398      9361  TIP3      H1             22.2245460052       21.6702879245      -42.2236800498  TIP3      9161            0.0000000000
     52399      9361  TIP3      H2             21.7178855721       20.2619301079      -42.4197185879  TIP3      9161            0.0000000000
     52400      9362  TIP3      OH2            29.8560307737       20.9166223236      -43.3585969248  TIP3      9162            0.0000000000
     52401      9362  TIP3      H1             30.5059326019       20.6016520535      -42.6885978962  TIP3      9162            0.0000000000
     52402      9362  TIP3      H2             30.4208702846       21.4865589627      -43.9052398945  TIP3      9162            0.0000000000
     52403      9363  TIP3      OH2            18.7387522519       23.2474273320      -40.9944727424  TIP3      9163            0.0000000000
     52404      9363  TIP3      H1             19.4096411962       22.7031260903      -40.5394460347  TIP3      9163            0.0000000000
     52405      9363  TIP3      H2             18.8470649201       22.9318465045      -41.9047177195  TIP3      9163            0.0000000000
     52406      9364  TIP3      OH2            23.8983526018       24.8017282041      -41.6715888208  TIP3      9164            0.0000000000
     52407      9364  TIP3      H1             24.5706292567       24.2205508106      -41.2747713132  TIP3      9164            0.0000000000
     52408      9364  TIP3      H2             23.3843916529       24.1453842189      -42.1821130713  TIP3      9164            0.0000000000
     52409      9365  TIP3      OH2            34.8996330859       21.3402704424      -36.2576883097  TIP3      9165            0.0000000000
     52410      9365  TIP3      H1             34.2815142886       22.0944354717      -36.3835240184  TIP3      9165            0.0000000000
     52411      9365  TIP3      H2             34.9188133355       21.2780826212      -35.2940032476  TIP3      9165            0.0000000000
     52412      9366  TIP3      OH2            21.0267716623       19.7358304013      -37.6890946770  TIP3      9166            0.0000000000
     52413      9366  TIP3      H1             20.7442356453       20.3068077975      -38.4348632805  TIP3      9166            0.0000000000
     52414      9366  TIP3      H2             20.3496315636       19.9671259781      -37.0070163329  TIP3      9166            0.0000000000
     52415      9367  TIP3      OH2            28.3040656585       29.2067001759      -44.1429143390  TIP3      9167            0.0000000000
     52416      9367  TIP3      H1             28.0291901311       28.9271424153      -45.0289932339  TIP3      9167            0.0000000000
     52417      9367  TIP3      H2             28.0061989809       30.1451684603      -44.1013087157  TIP3      9167            0.0000000000
     52418      9368  TIP3      OH2            23.5375649074       27.3771866335      -37.4515905391  TIP3      9168            0.0000000000
     52419      9368  TIP3      H1             22.8342237408       28.0223354795      -37.2281603942  TIP3      9168            0.0000000000
     52420      9368  TIP3      H2             24.2444380062       27.9754658099      -37.7419636685  TIP3      9168            0.0000000000
     52421      9369  TIP3      OH2            31.6674177001       20.2635735846      -41.3643129964  TIP3      9169            0.0000000000
     52422      9369  TIP3      H1             31.4453457250       19.4934916723      -40.8339088990  TIP3      9169            0.0000000000
     52423      9369  TIP3      H2             32.3380598020       20.6962327582      -40.8084315758  TIP3      9169            0.0000000000
     52424      9370  TIP3      OH2            20.5953612413       21.5915217185      -39.6512933017  TIP3      9170            0.0000000000
     52425      9370  TIP3      H1             21.2227363615       22.2812477735      -39.3390009087  TIP3      9170            0.0000000000
     52426      9370  TIP3      H2             21.1103757221       21.1822151190      -40.3911572564  TIP3      9170            0.0000000000
     52427      9371  TIP3      OH2            21.9884170312       29.3854775474      -36.6295216969  TIP3      9171            0.0000000000
     52428      9371  TIP3      H1             21.9392666488       30.2983514193      -36.9669831254  TIP3      9171            0.0000000000
     52429      9371  TIP3      H2             21.1056597081       29.3030582866      -36.1870042630  TIP3      9171            0.0000000000
     52430      9372  TIP3      OH2            18.0419911989       28.9805499400      -45.7996523945  TIP3      9172            0.0000000000
     52431      9372  TIP3      H1             17.8184288817       29.2932861389      -46.6979609227  TIP3      9172            0.0000000000
     52432      9372  TIP3      H2             18.1284507788       29.8225852231      -45.3106102934  TIP3      9172            0.0000000000
     52433      9373  TIP3      OH2            31.6730975092       30.6641866718      -39.0779176583  TIP3      9173            0.0000000000
     52434      9373  TIP3      H1             30.7054174156       30.7797359417      -38.9590551142  TIP3      9173            0.0000000000
     52435      9373  TIP3      H2             31.9444672489       31.5800887824      -39.2805669059  TIP3      9173            0.0000000000
     52436      9374  TIP3      OH2            31.9884801179       18.9481797108      -37.6830634561  TIP3      9174            0.0000000000
     52437      9374  TIP3      H1             31.2676124215       19.5836728608      -37.7823313455  TIP3      9174            0.0000000000
     52438      9374  TIP3      H2             32.7049604888       19.3592857915      -38.2071023233  TIP3      9174            0.0000000000
     52439      9375  TIP3      OH2            24.9662185035       17.0798524531      -40.2379387858  TIP3      9175            0.0000000000
     52440      9375  TIP3      H1             24.8227708379       16.1149046553      -40.3011823713  TIP3      9175            0.0000000000
     52441      9375  TIP3      H2             24.0890619557       17.3776964930      -39.9181854473  TIP3      9175            0.0000000000
     52442      9376  TIP3      OH2            29.9470785468       32.4532979029      -42.4715388215  TIP3      9176            0.0000000000
     52443      9376  TIP3      H1             30.3606137515       31.7331428274      -42.9939792669  TIP3      9176            0.0000000000
     52444      9376  TIP3      H2             30.3717740705       33.2463856434      -42.8693612562  TIP3      9176            0.0000000000
     52445      9377  TIP3      OH2            31.1436421253       30.3692948187      -43.9533344764  TIP3      9177            0.0000000000
     52446      9377  TIP3      H1             30.8562711539       29.6821785680      -44.5806571788  TIP3      9177            0.0000000000
     52447      9377  TIP3      H2             31.1789676929       29.8679604733      -43.1204520138  TIP3      9177            0.0000000000
     52448      9378  TIP3      OH2            32.7668773497       28.9729228342      -35.4777279633  TIP3      9178            0.0000000000
     52449      9378  TIP3      H1             32.9098559766       28.3172452334      -36.1951154206  TIP3      9178            0.0000000000
     52450      9378  TIP3      H2             32.9725890513       29.8142513171      -35.9203293774  TIP3      9178            0.0000000000
     52451      9379  TIP3      OH2            27.2461375667       25.8929233793      -45.7170559598  TIP3      9179            0.0000000000
     52452      9379  TIP3      H1             26.5544546938       26.4726752763      -46.0914082123  TIP3      9179            0.0000000000
     52453      9379  TIP3      H2             27.9654382878       25.9634436452      -46.3738876137  TIP3      9179            0.0000000000
     52454      9380  TIP3      OH2            27.3615886787       24.3581584093      -48.6774785629  TIP3      9180            0.0000000000
     52455      9380  TIP3      H1             28.0793629438       24.3939731525      -48.0168155672  TIP3      9180            0.0000000000
     52456      9380  TIP3      H2             27.6945248049       23.6582123893      -49.2683734205  TIP3      9180            0.0000000000
     52457      9381  TIP3      OH2            34.6434278122       25.2899858306      -37.4360455112  TIP3      9181            0.0000000000
     52458      9381  TIP3      H1             33.9868435829       26.0120975788      -37.3931610423  TIP3      9181            0.0000000000
     52459      9381  TIP3      H2             35.1445085299       25.5328490066      -38.2392054192  TIP3      9181            0.0000000000
     52460      9382  TIP3      OH2            30.7023387959       26.0811378026      -44.7721699633  TIP3      9182            0.0000000000
     52461      9382  TIP3      H1             29.9545390924       26.3152826098      -44.1715328326  TIP3      9182            0.0000000000
     52462      9382  TIP3      H2             31.1814554180       25.4021536893      -44.2654962245  TIP3      9182            0.0000000000
     52463      9383  TIP3      OH2            30.6373247542       24.2335025696      -35.6659759037  TIP3      9183            0.0000000000
     52464      9383  TIP3      H1             30.6506125731       25.0492383185      -35.1371735243  TIP3      9183            0.0000000000
     52465      9383  TIP3      H2             30.0088839414       24.5289306231      -36.3584189803  TIP3      9183            0.0000000000
     52466      9384  TIP3      OH2            22.3184361905       26.7276303753      -42.8765453053  TIP3      9184            0.0000000000
     52467      9384  TIP3      H1             22.0011795490       26.3497264281      -43.7340972799  TIP3      9184            0.0000000000
     52468      9384  TIP3      H2             22.9343369568       26.0364171564      -42.5452500144  TIP3      9184            0.0000000000
     52469      9385  TIP3      OH2            23.6395555101       30.1123692210      -40.1956362028  TIP3      9185            0.0000000000
     52470      9385  TIP3      H1             23.6349404798       29.5904881072      -41.0066874429  TIP3      9185            0.0000000000
     52471      9385  TIP3      H2             24.4230350448       29.7565737850      -39.7375273850  TIP3      9185            0.0000000000
     52472      9386  TIP3      OH2            22.6484805247       25.4763497972      -39.2125219852  TIP3      9186            0.0000000000
     52473      9386  TIP3      H1             23.1965027915       25.5737447420      -40.0159714525  TIP3      9186            0.0000000000
     52474      9386  TIP3      H2             23.0418217750       26.1416721443      -38.6048950205  TIP3      9186            0.0000000000
     52475      9387  TIP3      OH2            29.0705586949       31.0508716863      -38.5036210506  TIP3      9187            0.0000000000
     52476      9387  TIP3      H1             28.7833931067       31.6841477880      -37.8401251814  TIP3      9187            0.0000000000
     52477      9387  TIP3      H2             28.8133736828       30.1963195419      -38.0848386676  TIP3      9187            0.0000000000
     52478      9388  TIP3      OH2            23.6030898846       29.9119060289      -34.5174921858  TIP3      9188            0.0000000000
     52479      9388  TIP3      H1             23.1922558611       30.6605741113      -34.0369633979  TIP3      9188            0.0000000000
     52480      9388  TIP3      H2             22.9316880981       29.7075557089      -35.2145590530  TIP3      9188            0.0000000000
     52481      9389  TIP3      OH2            29.5457433840       25.2807415583      -47.1148506414  TIP3      9189            0.0000000000
     52482      9389  TIP3      H1             30.1233375459       25.4526830585      -46.3333016630  TIP3      9189            0.0000000000
     52483      9389  TIP3      H2             30.0322352285       25.7522117215      -47.8351765650  TIP3      9189            0.0000000000
     52484      9390  TIP3      OH2            20.5459538645       26.0658577392      -35.3661900000  TIP3      9190            0.0000000000
     52485      9390  TIP3      H1             20.5993438211       26.7339180833      -34.6578046944  TIP3      9190            0.0000000000
     52486      9390  TIP3      H2             19.6028551677       26.1534541557      -35.5753607029  TIP3      9190            0.0000000000
     52487      9391  TIP3      OH2            27.3110278125       32.0046566517      -43.6723411362  TIP3      9191            0.0000000000
     52488      9391  TIP3      H1             27.7268538175       32.3053711344      -42.8544699831  TIP3      9191            0.0000000000
     52489      9391  TIP3      H2             26.7330941175       32.7436273376      -43.8887547165  TIP3      9191            0.0000000000
     52490      9392  TIP3      OH2            21.8461017109       31.9412597555      -33.7717539181  TIP3      9192            0.0000000000
     52491      9392  TIP3      H1             21.7867340672       31.8391243187      -34.7367105043  TIP3      9192            0.0000000000
     52492      9392  TIP3      H2             20.9128988042       31.8115755413      -33.5097244708  TIP3      9192            0.0000000000
     52493      9393  TIP3      OH2            33.3316013125       16.9774875086      -47.2672338774  TIP3      9193            0.0000000000
     52494      9393  TIP3      H1             32.3856726357       17.0827539165      -46.9924129738  TIP3      9193            0.0000000000
     52495      9393  TIP3      H2             33.4965546022       17.8515650413      -47.6649836445  TIP3      9193            0.0000000000
     52496      9394  TIP3      OH2            21.2728784436       25.7536897245      -45.2301187519  TIP3      9194            0.0000000000
     52497      9394  TIP3      H1             20.9960977361       26.5234636452      -45.7682885288  TIP3      9194            0.0000000000
     52498      9394  TIP3      H2             20.6391986436       25.0780971333      -45.4796393461  TIP3      9194            0.0000000000
     52499      9395  TIP3      OH2            34.4175932478       31.3877984263      -48.6653000658  TIP3      9195            0.0000000000
     52500      9395  TIP3      H1             34.5196084340       32.3496346054      -48.7125796635  TIP3      9195            0.0000000000
     52501      9395  TIP3      H2             35.2223880238       30.9798318558      -49.0007592718  TIP3      9195            0.0000000000
     52502      9396  TIP3      OH2            17.3739164702       28.1801509132      -36.3568089143  TIP3      9196            0.0000000000
     52503      9396  TIP3      H1             16.9380278098       28.1012846931      -37.2240706168  TIP3      9196            0.0000000000
     52504      9396  TIP3      H2             17.4620895410       27.2330340680      -36.1448151724  TIP3      9196            0.0000000000
     52505      9397  TIP3      OH2            17.1438386787       30.9281020175      -39.6054904511  TIP3      9197            0.0000000000
     52506      9397  TIP3      H1             18.1004891368       30.8037015947      -39.6051442242  TIP3      9197            0.0000000000
     52507      9397  TIP3      H2             17.0581597911       31.7350493055      -39.0832311316  TIP3      9197            0.0000000000
     52508      9398  TIP3      OH2            35.3969857212       31.6325113645      -33.8888322176  TIP3      9198            0.0000000000
     52509      9398  TIP3      H1             35.2763914347       30.6720042744      -33.9297362539  TIP3      9198            0.0000000000
     52510      9398  TIP3      H2             34.5261062521       31.8753660457      -33.5073273163  TIP3      9198            0.0000000000
     52511      9399  TIP3      OH2            26.3366886544       31.1615597424      -35.0337726120  TIP3      9199            0.0000000000
     52512      9399  TIP3      H1             26.3949236499       32.0034507485      -34.5248352608  TIP3      9199            0.0000000000
     52513      9399  TIP3      H2             25.4644309689       30.8010628007      -34.7827163339  TIP3      9199            0.0000000000
     52514      9400  TIP3      OH2            26.7663341929       34.8954692783      -45.2470134181  TIP3      9200            0.0000000000
     52515      9400  TIP3      H1             26.7012318528       34.8259553855      -46.2113691687  TIP3      9200            0.0000000000
     52516      9400  TIP3      H2             26.7865699534       35.8507226411      -45.0781433332  TIP3      9200            0.0000000000
     52517      9401  TIP3      OH2            20.4115716390       33.7969046392      -43.3890255108  TIP3      9201            0.0000000000
     52518      9401  TIP3      H1             20.5663141164       33.3626295839      -42.5198600812  TIP3      9201            0.0000000000
     52519      9401  TIP3      H2             19.5745106341       33.3786297437      -43.6469452378  TIP3      9201            0.0000000000
     52520      9402  TIP3      OH2            29.7171946601       34.1784077000      -48.2026831435  TIP3      9202            0.0000000000
     52521      9402  TIP3      H1             30.2066831590       33.4396160797      -48.6525926874  TIP3      9202            0.0000000000
     52522      9402  TIP3      H2             29.8629563617       33.8762777888      -47.2939358129  TIP3      9202            0.0000000000
     52523      9403  TIP3      OH2            29.5163580047       34.0573233285      -45.4435798630  TIP3      9203            0.0000000000
     52524      9403  TIP3      H1             28.5566515397       34.1331711561      -45.2834173388  TIP3      9203            0.0000000000
     52525      9403  TIP3      H2             29.7523244057       33.2949828123      -44.8984209795  TIP3      9203            0.0000000000
     52526      9404  TIP3      OH2            32.5323922113       23.0886499709      -33.4293114449  TIP3      9204            0.0000000000
     52527      9404  TIP3      H1             32.0513747916       23.5393360243      -34.1422814958  TIP3      9204            0.0000000000
     52528      9404  TIP3      H2             32.5083424221       22.1685808832      -33.7321514924  TIP3      9204            0.0000000000
     52529      9405  TIP3      OH2            19.6688288611       29.4918458646      -35.4206479168  TIP3      9205            0.0000000000
     52530      9405  TIP3      H1             19.8882029792       29.1307624037      -34.5365776250  TIP3      9205            0.0000000000
     52531      9405  TIP3      H2             18.7969294189       29.0984108340      -35.6325048880  TIP3      9205            0.0000000000
     52532      9406  TIP3      OH2            22.3484247726       17.9726534039      -39.4735504321  TIP3      9206            0.0000000000
     52533      9406  TIP3      H1             21.4447687412       17.8447570032      -39.8396638899  TIP3      9206            0.0000000000
     52534      9406  TIP3      H2             22.2124172674       18.7999887099      -38.9849106769  TIP3      9206            0.0000000000
     52535      9407  TIP3      OH2            26.9914973047       17.6359503069      -36.1128892306  TIP3      9207            0.0000000000
     52536      9407  TIP3      H1             27.3825657013       17.2127788703      -35.3258425099  TIP3      9207            0.0000000000
     52537      9407  TIP3      H2             26.0190581056       17.5225613015      -35.9660796564  TIP3      9207            0.0000000000
     52538      9408  TIP3      OH2            30.2793677645       21.4865497098      -35.2085037834  TIP3      9208            0.0000000000
     52539      9408  TIP3      H1             29.7125210907       21.2702604849      -34.4290210975  TIP3      9208            0.0000000000
     52540      9408  TIP3      H2             30.0929596812       22.4134307592      -35.4378633151  TIP3      9208            0.0000000000
     52541      9409  TIP3      OH2            31.2767349285       26.1889499672      -48.9153704369  TIP3      9209            0.0000000000
     52542      9409  TIP3      H1             31.1370488871       26.0610934113      -49.8693099275  TIP3      9209            0.0000000000
     52543      9409  TIP3      H2             32.0481110684       26.7723351131      -49.0547305166  TIP3      9209            0.0000000000
     52544      9410  TIP3      OH2            26.6646470344       20.2386510804      -48.7678894019  TIP3      9210            0.0000000000
     52545      9410  TIP3      H1             26.3139635079       20.1608768632      -47.8569367051  TIP3      9210            0.0000000000
     52546      9410  TIP3      H2             26.3582952670       19.3848462720      -49.0991836806  TIP3      9210            0.0000000000
     52547      9411  TIP3      OH2            22.4518210501       22.9499832483      -38.2075867539  TIP3      9211            0.0000000000
     52548      9411  TIP3      H1             21.7096369295       22.9379676086      -37.5782907205  TIP3      9211            0.0000000000
     52549      9411  TIP3      H2             22.4013131357       23.8547636867      -38.5909242796  TIP3      9211            0.0000000000
     52550      9412  TIP3      OH2            22.4086470686       23.0551879378      -43.3518521012  TIP3      9212            0.0000000000
     52551      9412  TIP3      H1             21.4693593765       22.8091801698      -43.4890322760  TIP3      9212            0.0000000000
     52552      9412  TIP3      H2             22.7860251175       22.7726267999      -44.2101282461  TIP3      9212            0.0000000000
     52553      9413  TIP3      OH2            27.9256485207       23.5663019555      -44.6044719624  TIP3      9213            0.0000000000
     52554      9413  TIP3      H1             27.5448455895       24.4008167868      -44.9594201914  TIP3      9213            0.0000000000
     52555      9413  TIP3      H2             28.6359934157       23.3893570992      -45.2492052460  TIP3      9213            0.0000000000
     52556      9414  TIP3      OH2            26.9828216949       23.7750785983      -33.1485316943  TIP3      9214            0.0000000000
     52557      9414  TIP3      H1             26.4582656905       22.9988290917      -32.8381977628  TIP3      9214            0.0000000000
     52558      9414  TIP3      H2             27.8205534091       23.6548419458      -32.6716765854  TIP3      9214            0.0000000000
     52559      9415  TIP3      OH2            28.9690809653       23.0506128122      -41.7393531189  TIP3      9215            0.0000000000
     52560      9415  TIP3      H1             28.6798321538       23.6193406777      -42.4735289534  TIP3      9215            0.0000000000
     52561      9415  TIP3      H2             29.0591833194       22.2052399610      -42.2213281845  TIP3      9215            0.0000000000
     52562      9416  TIP3      OH2            20.0713616643       23.1929838171      -36.5407374748  TIP3      9216            0.0000000000
     52563      9416  TIP3      H1             20.1552646349       23.6022854539      -35.6619135852  TIP3      9216            0.0000000000
     52564      9416  TIP3      H2             19.6307840136       22.3550844697      -36.3280059333  TIP3      9216            0.0000000000
     52565      9417  TIP3      OH2            23.4679447313       20.5766799743      -49.6776331991  TIP3      9217            0.0000000000
     52566      9417  TIP3      H1             23.0274991388       20.1762227576      -48.9016935535  TIP3      9217            0.0000000000
     52567      9417  TIP3      H2             22.7512501555       20.9738598427      -50.1735966175  TIP3      9217            0.0000000000
     52568      9418  TIP3      OH2            16.7294329009       20.3021059033      -42.5468664402  TIP3      9218            0.0000000000
     52569      9418  TIP3      H1             17.4141114898       20.2641492671      -41.8488412555  TIP3      9218            0.0000000000
     52570      9418  TIP3      H2             17.1775552187       19.9307461024      -43.3301561979  TIP3      9218            0.0000000000
     52571      9419  TIP3      OH2            18.0086790266       21.0229530785      -47.1796986054  TIP3      9219            0.0000000000
     52572      9419  TIP3      H1             18.5078447336       21.6372551271      -47.7523268822  TIP3      9219            0.0000000000
     52573      9419  TIP3      H2             17.3241718285       21.6527117431      -46.8734353309  TIP3      9219            0.0000000000
     52574      9420  TIP3      OH2            28.1585076474       24.6377758094      -37.1873624140  TIP3      9220            0.0000000000
     52575      9420  TIP3      H1             28.5412958021       23.9511814791      -37.7705200748  TIP3      9220            0.0000000000
     52576      9420  TIP3      H2             27.6921968910       24.1108527044      -36.5142164692  TIP3      9220            0.0000000000
     52577      9421  TIP3      OH2            24.9683488107       20.6222331459      -42.3511942505  TIP3      9221            0.0000000000
     52578      9421  TIP3      H1             24.0354662012       20.6189922124      -42.0618835327  TIP3      9221            0.0000000000
     52579      9421  TIP3      H2             25.4471239179       20.4442438742      -41.5272812936  TIP3      9221            0.0000000000
     52580      9422  TIP3      OH2            19.7710411379       22.1654828868      -43.4790991068  TIP3      9222            0.0000000000
     52581      9422  TIP3      H1             18.8886447754       22.3237973934      -43.8727310064  TIP3      9222            0.0000000000
     52582      9422  TIP3      H2             20.0557958597       21.3326539555      -43.8907741957  TIP3      9222            0.0000000000
     52583      9423  TIP3      OH2            23.4197375926       22.2191206286      -45.8371068162  TIP3      9223            0.0000000000
     52584      9423  TIP3      H1             24.3771663599       22.3151073129      -45.6720965328  TIP3      9223            0.0000000000
     52585      9423  TIP3      H2             23.1871928799       22.8819392022      -46.5170129141  TIP3      9223            0.0000000000
     52586      9424  TIP3      OH2            29.3624630158       19.8547329771      -39.1095450128  TIP3      9224            0.0000000000
     52587      9424  TIP3      H1             28.6810356043       19.8996284010      -38.4061096938  TIP3      9224            0.0000000000
     52588      9424  TIP3      H2             28.8589187637       19.5953387384      -39.8940482182  TIP3      9224            0.0000000000
     52589      9425  TIP3      OH2            22.1440583799       23.4082899924      -48.2440392314  TIP3      9225            0.0000000000
     52590      9425  TIP3      H1             21.5496267209       23.0525390664      -48.9070818149  TIP3      9225            0.0000000000
     52591      9425  TIP3      H2             22.9523339709       23.6107825603      -48.7389459894  TIP3      9225            0.0000000000
     52592      9426  TIP3      OH2            32.5713433196       35.4672541394      -32.7877323273  TIP3      9226            0.0000000000
     52593      9426  TIP3      H1             32.8204308208       35.8864336880      -33.6292392611  TIP3      9226            0.0000000000
     52594      9426  TIP3      H2             33.2644214116       35.8575817883      -32.2247046432  TIP3      9226            0.0000000000
     52595      9427  TIP3      OH2            20.2453679442       27.9604280306      -33.2104463988  TIP3      9227            0.0000000000
     52596      9427  TIP3      H1             20.9657534637       28.2080184333      -32.6082672314  TIP3      9227            0.0000000000
     52597      9427  TIP3      H2             19.4726687112       28.0410339701      -32.6095361861  TIP3      9227            0.0000000000
     52598      9428  TIP3      OH2            26.2443410261       23.3734409786      -40.4567775856  TIP3      9228            0.0000000000
     52599      9428  TIP3      H1             26.8460491535       22.8407138868      -40.9903484468  TIP3      9228            0.0000000000
     52600      9428  TIP3      H2             26.0992797144       22.8231559922      -39.6751549911  TIP3      9228            0.0000000000
     52601      9429  TIP3      OH2            21.2535038112       19.5153923146      -44.0192252584  TIP3      9229            0.0000000000
     52602      9429  TIP3      H1             20.9445930768       18.5904498482      -44.0349191155  TIP3      9229            0.0000000000
     52603      9429  TIP3      H2             22.0493122662       19.4495145649      -44.5596551923  TIP3      9229            0.0000000000
     52604      9430  TIP3      OH2            24.8844217475       21.6963700468      -38.0421859387  TIP3      9230            0.0000000000
     52605      9430  TIP3      H1             24.0599366888       22.2189914758      -37.9545028086  TIP3      9230            0.0000000000
     52606      9430  TIP3      H2             25.4396308719       22.0527644441      -37.3212008849  TIP3      9230            0.0000000000
     52607      9431  TIP3      OH2            25.4802996662       27.9179400614      -46.3333809017  TIP3      9231            0.0000000000
     52608      9431  TIP3      H1             24.6755774101       27.4626332593      -46.6612820452  TIP3      9231            0.0000000000
     52609      9431  TIP3      H2             25.2565876772       28.0535885082      -45.3898358292  TIP3      9231            0.0000000000
     52610      9432  TIP3      OH2            32.6699151348       27.1268328880      -37.5404030426  TIP3      9232            0.0000000000
     52611      9432  TIP3      H1             33.2232924384       27.6111673815      -38.1779999650  TIP3      9232            0.0000000000
     52612      9432  TIP3      H2             31.8059920500       27.1684421810      -37.9997626538  TIP3      9232            0.0000000000
     52613      9433  TIP3      OH2            29.2581094451       20.7616544398      -47.9986313708  TIP3      9233            0.0000000000
     52614      9433  TIP3      H1             28.3441220839       20.9165478923      -48.2769627623  TIP3      9233            0.0000000000
     52615      9433  TIP3      H2             29.6112338860       21.6591290321      -47.8355898490  TIP3      9233            0.0000000000
     52616      9434  TIP3      OH2            26.9655969730       28.1955378202      -35.0990088778  TIP3      9234            0.0000000000
     52617      9434  TIP3      H1             26.6144822014       27.7643661599      -34.3130435934  TIP3      9234            0.0000000000
     52618      9434  TIP3      H2             26.7076488080       29.1162481236      -34.9915867731  TIP3      9234            0.0000000000
     52619      9435  TIP3      OH2            30.0302338122       22.7028033842      -46.4863635780  TIP3      9235            0.0000000000
     52620      9435  TIP3      H1             30.9210805711       22.5186177379      -46.1169625741  TIP3      9235            0.0000000000
     52621      9435  TIP3      H2             30.1460369971       23.4880283926      -47.0416875224  TIP3      9235            0.0000000000
     52622      9436  TIP3      OH2            20.5861923745       27.3217323722      -40.5410871961  TIP3      9236            0.0000000000
     52623      9436  TIP3      H1             21.2655049577       27.2354767686      -41.2376553192  TIP3      9236            0.0000000000
     52624      9436  TIP3      H2             20.6415785330       26.4610536493      -40.0882837832  TIP3      9236            0.0000000000
     52625      9437  TIP3      OH2            27.6124816789       29.3967514943      -47.2958659619  TIP3      9237            0.0000000000
     52626      9437  TIP3      H1             27.2352084823       30.2375970979      -46.9670951900  TIP3      9237            0.0000000000
     52627      9437  TIP3      H2             26.8546710850       28.7951457236      -47.1294826509  TIP3      9237            0.0000000000
     52628      9438  TIP3      OH2            17.5746495770       25.7189814311      -35.2834969574  TIP3      9238            0.0000000000
     52629      9438  TIP3      H1             17.7411469532       25.2752276770      -34.4290234496  TIP3      9238            0.0000000000
     52630      9438  TIP3      H2             16.9519544941       25.1111876055      -35.7226892501  TIP3      9238            0.0000000000
     52631      9439  TIP3      OH2            24.5853006519       25.2815180410      -33.1084472339  TIP3      9239            0.0000000000
     52632      9439  TIP3      H1             24.2647171146       24.9699020375      -33.9671183753  TIP3      9239            0.0000000000
     52633      9439  TIP3      H2             25.5074736003       24.9551913800      -33.1096072272  TIP3      9239            0.0000000000
     52634      9440  TIP3      OH2            29.2723015298       30.6169352267      -35.1503284855  TIP3      9240            0.0000000000
     52635      9440  TIP3      H1             28.3471371558       30.7943537058      -35.3847240312  TIP3      9240            0.0000000000
     52636      9440  TIP3      H2             29.2386160326       30.9097707214      -34.2191177195  TIP3      9240            0.0000000000
     52637      9441  TIP3      OH2            34.9660176589       22.7948531757      -46.7169402544  TIP3      9241            0.0000000000
     52638      9441  TIP3      H1             34.3946497246       22.5200967514      -47.4677625706  TIP3      9241            0.0000000000
     52639      9441  TIP3      H2             35.0208684011       23.7376559077      -46.9942691012  TIP3      9241            0.0000000000
     52640      9442  TIP3      OH2            34.9176583102       28.6408328387      -33.9533255065  TIP3      9242            0.0000000000
     52641      9442  TIP3      H1             34.0334449254       28.8685532183      -34.3284038868  TIP3      9242            0.0000000000
     52642      9442  TIP3      H2             35.4710398517       28.6189177245      -34.7631521753  TIP3      9242            0.0000000000
     52643      9443  TIP3      OH2            33.3169167557       31.5773342837      -46.3380706632  TIP3      9243            0.0000000000
     52644      9443  TIP3      H1             32.8257726635       30.7975726222      -46.0517753289  TIP3      9243            0.0000000000
     52645      9443  TIP3      H2             33.5031744715       31.3852992453      -47.2793107715  TIP3      9243            0.0000000000
     52646      9444  TIP3      OH2            30.4454239952       26.4402021147      -39.2598566686  TIP3      9244            0.0000000000
     52647      9444  TIP3      H1             29.5014053793       26.2336700840      -39.3726108714  TIP3      9244            0.0000000000
     52648      9444  TIP3      H2             30.8704500753       25.6809268655      -39.6987169952  TIP3      9244            0.0000000000
     52649      9445  TIP3      OH2            22.9518487646       30.7651536811      -43.1539257361  TIP3      9245            0.0000000000
     52650      9445  TIP3      H1             23.4513781964       31.5741086438      -43.3605080159  TIP3      9245            0.0000000000
     52651      9445  TIP3      H2             22.0768266585       31.0035789169      -43.4850739697  TIP3      9245            0.0000000000
     52652      9446  TIP3      OH2            18.7821542744       25.5703725754      -48.5643780660  TIP3      9246            0.0000000000
     52653      9446  TIP3      H1             19.3205318785       26.2739049020      -48.1641244732  TIP3      9246            0.0000000000
     52654      9446  TIP3      H2             17.8753745011       25.8856547876      -48.3450816558  TIP3      9246            0.0000000000
     52655      9447  TIP3      OH2            24.3731932154       28.4343491658      -43.6373895970  TIP3      9247            0.0000000000
     52656      9447  TIP3      H1             24.0535966961       29.3552504527      -43.5576185579  TIP3      9247            0.0000000000
     52657      9447  TIP3      H2             23.6529357544       27.9433125770      -43.1946257208  TIP3      9247            0.0000000000
     52658      9448  TIP3      OH2            24.8212692961       32.6231528122      -37.2270057786  TIP3      9248            0.0000000000
     52659      9448  TIP3      H1             25.2809283596       33.4270061259      -37.5154327507  TIP3      9248            0.0000000000
     52660      9448  TIP3      H2             25.4379886191       32.2795353562      -36.5571261161  TIP3      9248            0.0000000000
     52661      9449  TIP3      OH2            23.0529806380       33.4182286275      -44.0586937969  TIP3      9249            0.0000000000
     52662      9449  TIP3      H1             22.0871974336       33.5711170825      -43.9704816862  TIP3      9249            0.0000000000
     52663      9449  TIP3      H2             23.4187895562       34.2702442235      -43.7538794054  TIP3      9249            0.0000000000
     52664      9450  TIP3      OH2            28.3371656148       28.6138417166      -37.6156376399  TIP3      9250            0.0000000000
     52665      9450  TIP3      H1             28.0207262073       28.4258207003      -36.7073201433  TIP3      9250            0.0000000000
     52666      9450  TIP3      H2             28.9830163112       27.9083324332      -37.7811371764  TIP3      9250            0.0000000000
     52667      9451  TIP3      OH2            30.5950055997       29.6572142581      -48.4264186192  TIP3      9251            0.0000000000
     52668      9451  TIP3      H1             30.9484423754       29.1638951531      -47.6673136318  TIP3      9251            0.0000000000
     52669      9451  TIP3      H2             29.6554359497       29.4622740453      -48.3433767187  TIP3      9251            0.0000000000
     52670      9452  TIP3      OH2            31.1666738187       33.1774071952      -35.1322244523  TIP3      9252            0.0000000000
     52671      9452  TIP3      H1             30.4654037046       32.6985879285      -35.6085019002  TIP3      9252            0.0000000000
     52672      9452  TIP3      H2             31.3437059744       33.8939933386      -35.7789317792  TIP3      9252            0.0000000000
     52673      9453  TIP3      OH2            35.2258975209       34.0715535829      -48.2628367383  TIP3      9253            0.0000000000
     52674      9453  TIP3      H1             35.8326577829       34.7948882328      -48.4998194741  TIP3      9253            0.0000000000
     52675      9453  TIP3      H2             34.4439522773       34.6325203291      -47.9924705045  TIP3      9253            0.0000000000
     52676      9454  TIP3      OH2            19.2226760537       20.4555185822      -35.7358435661  TIP3      9254            0.0000000000
     52677      9454  TIP3      H1             18.3164148827       20.8071511129      -35.7547744403  TIP3      9254            0.0000000000
     52678      9454  TIP3      H2             19.1116216288       19.6103658353      -35.2726005434  TIP3      9254            0.0000000000
     52679      9455  TIP3      OH2            31.4636568941       28.3347907799      -46.2742508016  TIP3      9255            0.0000000000
     52680      9455  TIP3      H1             31.2239719831       27.5220103849      -45.7910812526  TIP3      9255            0.0000000000
     52681      9455  TIP3      H2             32.4133052351       28.3638080061      -46.0970597591  TIP3      9255            0.0000000000
     52682      9456  TIP3      OH2            18.8321262008       32.2355919843      -37.3086312989  TIP3      9256            0.0000000000
     52683      9456  TIP3      H1             19.1425432956       31.3169039171      -37.3006058186  TIP3      9256            0.0000000000
     52684      9456  TIP3      H2             19.0980676874       32.5308008951      -36.4294841969  TIP3      9256            0.0000000000
     52685      9457  TIP3      OH2            23.5900055058       30.3119452889      -47.5826360432  TIP3      9257            0.0000000000
     52686      9457  TIP3      H1             23.8496053084       29.7733930499      -46.8284577163  TIP3      9257            0.0000000000
     52687      9457  TIP3      H2             23.6463156063       31.2306853087      -47.2511601181  TIP3      9257            0.0000000000
     52688      9458  TIP3      OH2            20.0960918601       27.5209575466      -47.1183012588  TIP3      9258            0.0000000000
     52689      9458  TIP3      H1             19.4094186858       27.9365801876      -46.5585591780  TIP3      9258            0.0000000000
     52690      9458  TIP3      H2             20.6321691751       28.3031441044      -47.3559746763  TIP3      9258            0.0000000000
     52691      9459  TIP3      OH2            27.9555206349       20.2287111529      -36.7672556865  TIP3      9259            0.0000000000
     52692      9459  TIP3      H1             28.6727724668       20.2881071574      -36.1269778845  TIP3      9259            0.0000000000
     52693      9459  TIP3      H2             27.5722254663       19.3522035038      -36.5643510725  TIP3      9259            0.0000000000
     52694      9460  TIP3      OH2            28.6755444519       19.7935267672      -45.6384065341  TIP3      9260            0.0000000000
     52695      9460  TIP3      H1             28.9231569506       20.2482877943      -46.4729957023  TIP3      9260            0.0000000000
     52696      9460  TIP3      H2             29.2818034454       20.2380835539      -45.0387835252  TIP3      9260            0.0000000000
     52697      9461  TIP3      OH2            26.3958907614       31.9580397671      -46.8961370902  TIP3      9261            0.0000000000
     52698      9461  TIP3      H1             25.5723941887       32.4644854970      -46.7913303406  TIP3      9261            0.0000000000
     52699      9461  TIP3      H2             26.9133769619       32.5125076964      -47.4889621400  TIP3      9261            0.0000000000
     52700      9462  TIP3      OH2            25.9376607371       21.5416728272      -44.8627983066  TIP3      9262            0.0000000000
     52701      9462  TIP3      H1             26.7118560868       22.1379265766      -44.8306408379  TIP3      9262            0.0000000000
     52702      9462  TIP3      H2             25.6702510920       21.4285038075      -43.9314856289  TIP3      9262            0.0000000000
     52703      9463  TIP3      OH2            26.4805528053       22.5707190878      -35.6747019642  TIP3      9263            0.0000000000
     52704      9463  TIP3      H1             26.5566541447       23.1310136149      -34.8752319160  TIP3      9263            0.0000000000
     52705      9463  TIP3      H2             27.1456448567       21.8796978306      -35.5788403322  TIP3      9263            0.0000000000
     52706      9464  TIP3      OH2            26.7781032881       18.6025257572      -43.9820070107  TIP3      9264            0.0000000000
     52707      9464  TIP3      H1             26.4563678251       19.2612091427      -43.3449865692  TIP3      9264            0.0000000000
     52708      9464  TIP3      H2             27.4737825174       19.1484743198      -44.4279336721  TIP3      9264            0.0000000000
     52709      9465  TIP3      OH2            23.7581031539       33.0204641528      -46.8181016772  TIP3      9265            0.0000000000
     52710      9465  TIP3      H1             23.9352091029       33.8381979257      -47.3400831559  TIP3      9265            0.0000000000
     52711      9465  TIP3      H2             23.4997322147       33.3698204135      -45.9434921517  TIP3      9265            0.0000000000
     52712      9466  TIP3      OH2            22.4413567582       19.7450591582      -47.2313737925  TIP3      9266            0.0000000000
     52713      9466  TIP3      H1             22.3953301287       20.6324514130      -46.8360035429  TIP3      9266            0.0000000000
     52714      9466  TIP3      H2             23.3422334641       19.4730214686      -46.9793929773  TIP3      9266            0.0000000000
     52715      9467  TIP3      OH2            32.6599928832       20.4385609225      -34.8300711783  TIP3      9267            0.0000000000
     52716      9467  TIP3      H1             31.7338002325       20.7589726151      -34.9574817989  TIP3      9267            0.0000000000
     52717      9467  TIP3      H2             32.9604221953       20.4277757352      -35.7533870786  TIP3      9267            0.0000000000
     52718      9468  TIP3      OH2            31.2786386637       24.2328647114      -40.8171213105  TIP3      9268            0.0000000000
     52719      9468  TIP3      H1             30.4555214749       23.7849521188      -41.0959948909  TIP3      9268            0.0000000000
     52720      9468  TIP3      H2             31.7564611089       23.5437727425      -40.3055596298  TIP3      9268            0.0000000000
     52721      9469  TIP3      OH2            20.7164419716       30.1080224394      -48.1134711324  TIP3      9269            0.0000000000
     52722      9469  TIP3      H1             21.3512638388       30.8039070161      -47.9087378441  TIP3      9269            0.0000000000
     52723      9469  TIP3      H2             21.1334594657       29.7383061279      -48.9216398460  TIP3      9269            0.0000000000
     52724      9470  TIP3      OH2            19.0511103158       22.8347512872      -48.9520532305  TIP3      9270            0.0000000000
     52725      9470  TIP3      H1             19.0303645113       23.8051240362      -48.8649799753  TIP3      9270            0.0000000000
     52726      9470  TIP3      H2             18.2179964345       22.6209369515      -49.3966977318  TIP3      9270            0.0000000000
     52727      9471  TIP3      OH2            32.3429941306       33.4629331388      -39.1489863709  TIP3      9271            0.0000000000
     52728      9471  TIP3      H1             32.2462557144       34.1560886325      -39.8336248294  TIP3      9271            0.0000000000
     52729      9471  TIP3      H2             33.3040265590       33.5343841236      -38.9757399887  TIP3      9271            0.0000000000
     52730      9472  TIP3      OH2            19.8292671665       17.6126135706      -40.3398945915  TIP3      9272            0.0000000000
     52731      9472  TIP3      H1             19.6372423197       17.6291143483      -41.3037042026  TIP3      9272            0.0000000000
     52732      9472  TIP3      H2             19.4165305670       16.7590290351      -40.0900357358  TIP3      9272            0.0000000000
     52733      9473  TIP3      OH2            18.7832835891       31.5353782021      -44.1999948467  TIP3      9273            0.0000000000
     52734      9473  TIP3      H1             17.9252787606       31.9839521940      -44.2448822976  TIP3      9273            0.0000000000
     52735      9473  TIP3      H2             19.2705518867       31.9950150354      -44.8916451774  TIP3      9273            0.0000000000
     52736      9474  TIP3      OH2            17.9907829193       34.1831521316      -32.9226865686  TIP3      9274            0.0000000000
     52737      9474  TIP3      H1             18.5933709056       33.9852445313      -32.1777519705  TIP3      9274            0.0000000000
     52738      9474  TIP3      H2             17.5892725355       33.3132829295      -33.0969548493  TIP3      9274            0.0000000000
     52739      9475  TIP3      OH2            22.6801528474       33.0968533685      -31.3096618444  TIP3      9275            0.0000000000
     52740      9475  TIP3      H1             23.4347171002       32.5990281599      -30.9747043373  TIP3      9275            0.0000000000
     52741      9475  TIP3      H2             22.6479464408       32.8203637193      -32.2451891942  TIP3      9275            0.0000000000
     52742      9476  TIP3      OH2            26.7296244686       32.5574551059      -49.9824016605  TIP3      9276            0.0000000000
     52743      9476  TIP3      H1             26.1052812257       31.9089280306      -49.6387553759  TIP3      9276            0.0000000000
     52744      9476  TIP3      H2             27.5217755195       32.0236829317      -50.1155032011  TIP3      9276            0.0000000000
     52745      9477  TIP3      OH2            29.1712083820       31.4894977353      -32.5562354406  TIP3      9277            0.0000000000
     52746      9477  TIP3      H1             28.8585921636       30.6012644203      -32.2820117903  TIP3      9277            0.0000000000
     52747      9477  TIP3      H2             29.9430210303       31.6070618563      -31.9664428489  TIP3      9277            0.0000000000
     52748      9478  TIP3      OH2            30.9528884654       32.2517589463      -49.3151930756  TIP3      9278            0.0000000000
     52749      9478  TIP3      H1             31.4989985352       31.5196056157      -48.9841316209  TIP3      9278            0.0000000000
     52750      9478  TIP3      H2             31.5998886177       32.6945127178      -49.9359625057  TIP3      9278            0.0000000000
     52751      9479  TIP3      OH2            17.8978498555       27.9570105257      -31.9174590163  TIP3      9279            0.0000000000
     52752      9479  TIP3      H1             18.0649391709       27.0457146881      -32.2192005628  TIP3      9279            0.0000000000
     52753      9479  TIP3      H2             17.1594701421       28.2147075189      -32.4938756165  TIP3      9279            0.0000000000
     52754      9480  TIP3      OH2            22.3187475184       28.2382894241      -49.8159716983  TIP3      9280            0.0000000000
     52755      9480  TIP3      H1             22.4107941305       27.4807452684      -49.2270001556  TIP3      9280            0.0000000000
     52756      9480  TIP3      H2             23.0095179497       28.1442310236      -50.4807114935  TIP3      9280            0.0000000000
     52757      9481  TIP3      OH2            24.6228261015       27.9534719073      -32.5369079007  TIP3      9281            0.0000000000
     52758      9481  TIP3      H1             24.2813520781       28.2613306153      -33.3985592434  TIP3      9281            0.0000000000
     52759      9481  TIP3      H2             24.6899272385       26.9733671125      -32.6415415746  TIP3      9281            0.0000000000
     52760      9482  TIP3      OH2            30.3131651972       27.8048426645      -35.1418228793  TIP3      9282            0.0000000000
     52761      9482  TIP3      H1             31.1016602449       28.3865013091      -35.2017098050  TIP3      9282            0.0000000000
     52762      9482  TIP3      H2             29.6141009139       28.4736932531      -35.1058597007  TIP3      9282            0.0000000000
     52763      9483  TIP3      OH2            18.8231546359       25.1824824929      -32.5386331916  TIP3      9283            0.0000000000
     52764      9483  TIP3      H1             19.2400919060       24.3193299515      -32.6288291994  TIP3      9283            0.0000000000
     52765      9483  TIP3      H2             18.5890107520       25.1883813314      -31.5966260179  TIP3      9283            0.0000000000
     52766      9484  TIP3      OH2            23.4298942736       26.2986962587      -47.4937712399  TIP3      9284            0.0000000000
     52767      9484  TIP3      H1             22.9554005616       25.7983366882      -46.8082250164  TIP3      9284            0.0000000000
     52768      9484  TIP3      H2             23.7780204548       25.5823036180      -48.0691864334  TIP3      9284            0.0000000000
     52769      9485  TIP3      OH2            22.7194018615       24.1259383634      -35.1858379913  TIP3      9285            0.0000000000
     52770      9485  TIP3      H1             22.1234407737       24.8477388964      -34.9292272655  TIP3      9285            0.0000000000
     52771      9485  TIP3      H2             23.1181651646       24.4942381328      -35.9926333555  TIP3      9285            0.0000000000
     52772      9486  TIP3      OH2            24.6309402437       24.5335252093      -49.1617834600  TIP3      9286            0.0000000000
     52773      9486  TIP3      H1             24.3964267113       24.4047964408      -50.0978376393  TIP3      9286            0.0000000000
     52774      9486  TIP3      H2             25.6050508343       24.6083596276      -49.1398308957  TIP3      9286            0.0000000000
     52775      9487  TIP3      OH2            27.8000570086       26.7043974335      -31.8340314832  TIP3      9287            0.0000000000
     52776      9487  TIP3      H1             28.7552642570       26.6816823030      -31.9713451115  TIP3      9287            0.0000000000
     52777      9487  TIP3      H2             27.6252992692       25.9303679838      -31.2752683067  TIP3      9287            0.0000000000
     52778      9488  TIP3      OH2            33.6369496012       26.5914228094       50.2213016088  TIP3      9288            0.0000000000
     52779      9488  TIP3      H1             33.6926289497       26.3600161334       49.3004157353  TIP3      9288            0.0000000000
     52780      9488  TIP3      H2             33.8501740678       27.5524409141       50.1258939418  TIP3      9288            0.0000000000
     52781      9489  TIP3      OH2            23.1258664346       21.5042464749      -34.1286413722  TIP3      9289            0.0000000000
     52782      9489  TIP3      H1             23.2428609971       20.7960392674      -34.7884629130  TIP3      9289            0.0000000000
     52783      9489  TIP3      H2             23.0814444154       22.3157009476      -34.6769089598  TIP3      9289            0.0000000000
     52784      9490  TIP3      OH2            23.5301150144       19.8811946108      -36.5741369299  TIP3      9290            0.0000000000
     52785      9490  TIP3      H1             24.0376949497       20.3516598065      -37.2790720043  TIP3      9290            0.0000000000
     52786      9490  TIP3      H2             22.6360105427       19.8086170039      -36.9786806052  TIP3      9290            0.0000000000
     52787      9491  TIP3      OH2            25.0665228213       25.3785420268      -36.3295446797  TIP3      9291            0.0000000000
     52788      9491  TIP3      H1             25.8227879805       25.2124227051      -36.9029199655  TIP3      9291            0.0000000000
     52789      9491  TIP3      H2             24.7024416887       26.2124971284      -36.6692026619  TIP3      9291            0.0000000000
     52790      9492  TIP3      OH2            29.4683153680       23.1256173903      -31.3572299550  TIP3      9292            0.0000000000
     52791      9492  TIP3      H1             29.7110271920       22.1970725052      -31.4700271774  TIP3      9292            0.0000000000
     52792      9492  TIP3      H2             30.3315546703       23.5700183255      -31.3567050234  TIP3      9292            0.0000000000
     52793      9493  TIP3      OH2            30.7969881163       25.9264470584      -33.1979688747  TIP3      9293            0.0000000000
     52794      9493  TIP3      H1             30.5499250511       26.6449952459      -33.8195708074  TIP3      9293            0.0000000000
     52795      9493  TIP3      H2             31.7562257066       25.8923929457      -33.3892252683  TIP3      9293            0.0000000000
     52796      9494  TIP3      OH2            21.5870636365       22.7570727898      -32.2073058525  TIP3      9294            0.0000000000
     52797      9494  TIP3      H1             20.8183109336       22.1779222676      -32.3747667657  TIP3      9294            0.0000000000
     52798      9494  TIP3      H2             22.2408052450       22.3866520818      -32.8294976361  TIP3      9294            0.0000000000
     52799      9495  TIP3      OH2            24.3214328822       17.3237853849      -36.1905588152  TIP3      9295            0.0000000000
     52800      9495  TIP3      H1             24.1333504701       18.2861086123      -36.2824863375  TIP3      9295            0.0000000000
     52801      9495  TIP3      H2             23.5699303183       16.9560877075      -36.6874185498  TIP3      9295            0.0000000000
     52802      9496  TIP3      OH2            25.5899454869       21.6515098880      -32.5589219432  TIP3      9296            0.0000000000
     52803      9496  TIP3      H1             25.2748899725       21.4206061961      -31.6633188248  TIP3      9296            0.0000000000
     52804      9496  TIP3      H2             24.8076103611       21.4496966048      -33.0994527653  TIP3      9296            0.0000000000
     52805      9497  TIP3      OH2            28.3111086715       20.7987354181      -33.4629998648  TIP3      9297            0.0000000000
     52806      9497  TIP3      H1             27.3455624517       20.8511595836      -33.3569499371  TIP3      9297            0.0000000000
     52807      9497  TIP3      H2             28.5733389483       20.1563815505      -32.7752829300  TIP3      9297            0.0000000000
     52808      9498  TIP3      OH2            29.8911899618       19.4150979072      -31.5678095972  TIP3      9298            0.0000000000
     52809      9498  TIP3      H1             29.8439408252       18.4379638371      -31.5351363160  TIP3      9298            0.0000000000
     52810      9498  TIP3      H2             29.6436040264       19.7081607350      -30.6684869832  TIP3      9298            0.0000000000
     52811      9499  TIP3      OH2            19.6632042690       20.6935003479      -32.4509549578  TIP3      9299            0.0000000000
     52812      9499  TIP3      H1             19.9131347178       19.9570066267      -33.0362213234  TIP3      9299            0.0000000000
     52813      9499  TIP3      H2             19.5750983693       20.2455552981      -31.5868826354  TIP3      9299            0.0000000000
     52814      9500  TIP3      OH2            24.5337795179       16.7193171923      -33.4850644572  TIP3      9300            0.0000000000
     52815      9500  TIP3      H1             25.2116761098       16.0143476996      -33.5008588336  TIP3      9300            0.0000000000
     52816      9500  TIP3      H2             24.4173572789       16.8579237385      -34.4454662122  TIP3      9300            0.0000000000
     52817      9501  TIP3      OH2            24.8951286029       18.3299639893      -31.3666488437  TIP3      9301            0.0000000000
     52818      9501  TIP3      H1             24.7212253585       17.8241433668      -32.1991908273  TIP3      9301            0.0000000000
     52819      9501  TIP3      H2             24.2960216598       19.0948719019      -31.4676488710  TIP3      9301            0.0000000000
     52820      9502  TIP3      OH2            24.3687383487       35.2638008054      -48.2177688431  TIP3      9302            0.0000000000
     52821      9502  TIP3      H1             25.3404646435       35.3550927201      -48.1381482899  TIP3      9302            0.0000000000
     52822      9502  TIP3      H2             24.1603169271       35.8921376611      -48.9214506300  TIP3      9302            0.0000000000
     52823      9503  TIP3      OH2            18.0076668522       29.8099252832      -48.6373178267  TIP3      9303            0.0000000000
     52824      9503  TIP3      H1             18.9734243739       29.9140846523      -48.4958569231  TIP3      9303            0.0000000000
     52825      9503  TIP3      H2             17.9978182477       29.2114476138      -49.3976113932  TIP3      9303            0.0000000000
     52826      9504  TIP3      OH2            16.7297767130       35.2228489415      -43.7714643698  TIP3      9304            0.0000000000
     52827      9504  TIP3      H1             15.9892954427       34.7515167823      -44.2225345826  TIP3      9304            0.0000000000
     52828      9504  TIP3      H2             16.9740188516       34.5699366573      -43.0901670341  TIP3      9304            0.0000000000
     52829      9505  TIP3      OH2            17.5192251559       33.3395185232      -41.8800871220  TIP3      9305            0.0000000000
     52830      9505  TIP3      H1             17.1647360754       32.4602415450      -41.6796973761  TIP3      9305            0.0000000000
     52831      9505  TIP3      H2             17.7459556103       33.6670197682      -40.9954936440  TIP3      9305            0.0000000000
     52832      9506  TIP3      OH2            35.0586483677       34.1302505311      -38.9568623513  TIP3      9306            0.0000000000
     52833      9506  TIP3      H1             35.0716897071       34.2842386909      -37.9966594764  TIP3      9306            0.0000000000
     52834      9506  TIP3      H2             35.7719005517       34.7050122285      -39.2529302113  TIP3      9306            0.0000000000
     52835      9507  TIP3      OH2            34.6453831358       33.7129484401      -36.0032199026  TIP3      9307            0.0000000000
     52836      9507  TIP3      H1             34.1597126051       32.9539505697      -36.3864451648  TIP3      9307            0.0000000000
     52837      9507  TIP3      H2             35.1410386939       33.2588932337      -35.3008324852  TIP3      9307            0.0000000000
     52838      9508  TIP3      OH2            33.0747042102       29.4512414464      -31.3281510336  TIP3      9308            0.0000000000
     52839      9508  TIP3      H1             32.1671159112       29.4237383225      -30.9724421028  TIP3      9308            0.0000000000
     52840      9508  TIP3      H2             33.4467850231       30.2574654971      -30.9227700551  TIP3      9308            0.0000000000
     52841      9509  TIP3      OH2            34.3525254322       27.8077133518      -45.8735991061  TIP3      9309            0.0000000000
     52842      9509  TIP3      H1             35.2349515664       28.1562800054      -45.7059597909  TIP3      9309            0.0000000000
     52843      9509  TIP3      H2             34.3546188559       27.0535148481      -45.2398324467  TIP3      9309            0.0000000000
     52844      9510  TIP3      OH2            34.7616347219       25.8552716770      -44.0288200510  TIP3      9310            0.0000000000
     52845      9510  TIP3      H1             34.0130150187       25.3472590426      -43.6430905949  TIP3      9310            0.0000000000
     52846      9510  TIP3      H2             35.3540566367       25.9901038826      -43.2620944452  TIP3      9310            0.0000000000
     52847      9511  TIP3      OH2            34.5421736698       28.5429404802      -39.0322753585  TIP3      9311            0.0000000000
     52848      9511  TIP3      H1             35.3652054220       28.1744547752      -39.4041080816  TIP3      9311            0.0000000000
     52849      9511  TIP3      H2             34.6557245954       29.5002503604      -39.2080930312  TIP3      9311            0.0000000000
     52850      9512  TIP3      OH2            33.0633846885       31.4654593678      -36.7658014974  TIP3      9312            0.0000000000
     52851      9512  TIP3      H1             32.3724739557       31.8010126399      -36.1747077782  TIP3      9312            0.0000000000
     52852      9512  TIP3      H2             32.5198578211       31.0592972093      -37.4740376358  TIP3      9312            0.0000000000
     52853      9513  TIP3      OH2            35.0777433518       25.7103319256      -47.6309469671  TIP3      9313            0.0000000000
     52854      9513  TIP3      H1             34.4917779174       26.0280315152      -48.3497618891  TIP3      9313            0.0000000000
     52855      9513  TIP3      H2             34.9589198119       26.4074391990      -46.9611262511  TIP3      9313            0.0000000000
     52856      9514  TIP3      OH2            33.3849438743       22.9858470099      -48.7688575660  TIP3      9314            0.0000000000
     52857      9514  TIP3      H1             33.5440037382       23.6063089791      -49.5088156048  TIP3      9314            0.0000000000
     52858      9514  TIP3      H2             33.4306794234       22.1373250452      -49.2506224615  TIP3      9314            0.0000000000
     52859      9515  TIP3      OH2            32.5741399626       24.3252871700      -43.4329557562  TIP3      9315            0.0000000000
     52860      9515  TIP3      H1             32.4228610541       23.3707202153      -43.4833181878  TIP3      9315            0.0000000000
     52861      9515  TIP3      H2             32.2441109634       24.5393983946      -42.5424328853  TIP3      9315            0.0000000000
     52862      9516  TIP3      OH2            17.5784517519       26.4175111055      -39.3878734754  TIP3      9316            0.0000000000
     52863      9516  TIP3      H1             17.7544364391       26.3344447663      -40.3512923606  TIP3      9316            0.0000000000
     52864      9516  TIP3      H2             18.4718610768       26.2376622679      -39.0359009301  TIP3      9316            0.0000000000
     52865      9517  TIP3      OH2            33.4143039481       26.2899500742      -33.7377967742  TIP3      9317            0.0000000000
     52866      9517  TIP3      H1             34.0387579559       25.5407669106      -33.6297090603  TIP3      9317            0.0000000000
     52867      9517  TIP3      H2             34.0178057075       27.0640813946      -33.7623837438  TIP3      9317            0.0000000000
     52868      9518  TIP3      OH2            34.9627493497       24.1760399875      -33.1121725056  TIP3      9318            0.0000000000
     52869      9518  TIP3      H1             34.0795824794       23.7824117042      -33.2703428452  TIP3      9318            0.0000000000
     52870      9518  TIP3      H2             35.5244083455       23.3837139887      -33.1800572185  TIP3      9318            0.0000000000
     52871      9519  TIP3      OH2            32.6553857819       20.2630080820      -49.9542984615  TIP3      9319            0.0000000000
     52872      9519  TIP3      H1             33.2425145782       19.8544145818      -49.2926792127  TIP3      9319            0.0000000000
     52873      9519  TIP3      H2             31.7730074484       19.9149166580      -49.7493499501  TIP3      9319            0.0000000000
     52874      9520  TIP3      OH2            32.2307921467       21.9008808154      -45.0072212563  TIP3      9320            0.0000000000
     52875      9520  TIP3      H1             32.5343036164       20.9736484263      -44.8616449526  TIP3      9320            0.0000000000
     52876      9520  TIP3      H2             33.0320697415       22.3041001143      -45.3769202432  TIP3      9320            0.0000000000
     52877      9521  TIP3      OH2            32.8774207824       22.4464545707      -39.5430399614  TIP3      9321            0.0000000000
     52878      9521  TIP3      H1             33.8354885076       22.6843403023      -39.5651578055  TIP3      9321            0.0000000000
     52879      9521  TIP3      H2             32.6922491746       22.5978045573      -38.6045112982  TIP3      9321            0.0000000000
     52880      9522  TIP3      OH2            32.9437956392       23.1722956789      -36.7710178466  TIP3      9322            0.0000000000
     52881      9522  TIP3      H1             32.0640053496       23.4618975511      -36.4521541528  TIP3      9322            0.0000000000
     52882      9522  TIP3      H2             33.3784298283       24.0310490987      -36.9871664524  TIP3      9322            0.0000000000
     52883      9523  TIP3      OH2            17.1978884914       21.7196148158      -33.2271769458  TIP3      9323            0.0000000000
     52884      9523  TIP3      H1             18.1348966518       21.5026863937      -33.0428231321  TIP3      9323            0.0000000000
     52885      9523  TIP3      H2             16.7386919499       20.8930061734      -32.9627347545  TIP3      9323            0.0000000000
     52886      9524  TIP3      OH2            35.2369418466       17.2370797048      -31.4248343799  TIP3      9324            0.0000000000
     52887      9524  TIP3      H1             35.5912440208       16.5760622752      -32.0478760856  TIP3      9324            0.0000000000
     52888      9524  TIP3      H2             35.3087114167       18.0505180854      -31.9633908144  TIP3      9324            0.0000000000
     52889      9525  TIP3      OH2            32.8856955831       19.2103471888      -44.9414390791  TIP3      9325            0.0000000000
     52890      9525  TIP3      H1             33.1227900553       18.7662993505      -44.0955420563  TIP3      9325            0.0000000000
     52891      9525  TIP3      H2             32.2937031105       18.5645430091      -45.3850031655  TIP3      9325            0.0000000000
     52892      9526  TIP3      OH2            18.3966057193       20.0073487605      -40.3853987262  TIP3      9326            0.0000000000
     52893      9526  TIP3      H1             18.8548284615       19.1792965997      -40.1309455059  TIP3      9326            0.0000000000
     52894      9526  TIP3      H2             18.9489893769       20.6975376434      -39.9964673734  TIP3      9326            0.0000000000
     52895      9527  TIP3      OH2            16.6771783773       23.0097903368      -39.3506199938  TIP3      9327            0.0000000000
     52896      9527  TIP3      H1             17.2411084006       22.7574214458      -40.1100821522  TIP3      9327            0.0000000000
     52897      9527  TIP3      H2             17.1465666571       23.8122225580      -39.0809359575  TIP3      9327            0.0000000000
     52898      9528  TIP3      OH2            34.7482255039       19.3296217310      -33.0664838409  TIP3      9328            0.0000000000
     52899      9528  TIP3      H1             33.8141714875       19.6160928879      -33.1194561892  TIP3      9328            0.0000000000
     52900      9528  TIP3      H2             34.7533658335       18.7904202590      -33.8727975350  TIP3      9328            0.0000000000
     52901      9529  TIP3      OH2            34.7608705972       19.2365516812      -48.3564062136  TIP3      9329            0.0000000000
     52902      9529  TIP3      H1             35.1701729013       18.5608580873      -48.9176940068  TIP3      9329            0.0000000000
     52903      9529  TIP3      H2             35.4382017227       19.9310239426      -48.3893551450  TIP3      9329            0.0000000000
     52904      9530  TIP3      OH2            17.0445271193       19.2724403405      -45.2758960900  TIP3      9330            0.0000000000
     52905      9530  TIP3      H1             16.1028139657       19.4500951752      -45.4152107423  TIP3      9330            0.0000000000
     52906      9530  TIP3      H2             17.4562139639       19.7586936107      -46.0115320240  TIP3      9330            0.0000000000
     52907      9531  TIP3      OH2            31.7933390116       34.2139875253      -43.3466871910  TIP3      9331            0.0000000000
     52908      9531  TIP3      H1             32.4694770557       33.9013099410      -43.9657091032  TIP3      9331            0.0000000000
     52909      9531  TIP3      H2             32.2974524334       34.7235813801      -42.6930012265  TIP3      9331            0.0000000000
     52910      9532  TIP3      OH2            16.9900933222       17.9171398723      -36.9840968961  TIP3      9332            0.0000000000
     52911      9532  TIP3      H1             16.3236747281       17.7277580883      -36.3006682694  TIP3      9332            0.0000000000
     52912      9532  TIP3      H2             16.5332235107       18.5945733146      -37.5229307595  TIP3      9332            0.0000000000
     52913      9533  TIP3      OH2            19.2324400403       31.1124546413      -32.8204714251  TIP3      9333            0.0000000000
     52914      9533  TIP3      H1             18.3945434185       31.3402285231      -33.2571850442  TIP3      9333            0.0000000000
     52915      9533  TIP3      H2             18.9642842860       31.0441460073      -31.9015564912  TIP3      9333            0.0000000000
     52916      9534  TIP3      OH2            22.1274481786       32.1341634225      -36.5383281174  TIP3      9334            0.0000000000
     52917      9534  TIP3      H1             21.8122521272       33.0124635219      -36.8069118672  TIP3      9334            0.0000000000
     52918      9534  TIP3      H2             23.0570669140       32.2111337611      -36.8451092839  TIP3      9334            0.0000000000
     52919      9535  TIP3      OH2            26.4485489065       33.5595922881      -33.6387981306  TIP3      9335            0.0000000000
     52920      9535  TIP3      H1             26.5898752230       33.2009065607      -32.7327248636  TIP3      9335            0.0000000000
     52921      9535  TIP3      H2             27.3518739642       33.8592953175      -33.8883401573  TIP3      9335            0.0000000000
     52922      9536  TIP3      OH2            28.7500474647       34.8797824661      -34.3379610018  TIP3      9336            0.0000000000
     52923      9536  TIP3      H1             29.4685485237       34.2753668070      -34.5721681420  TIP3      9336            0.0000000000
     52924      9536  TIP3      H2             29.1130400665       35.2378677517      -33.5018648502  TIP3      9336            0.0000000000
     52925      9537  TIP3      OH2            33.7792608916       17.4324790492      -35.2212768300  TIP3      9337            0.0000000000
     52926      9537  TIP3      H1             32.9422777670       17.7320709711      -35.6263791306  TIP3      9337            0.0000000000
     52927      9537  TIP3      H2             33.9241596121       16.6044134101      -35.7302606653  TIP3      9337            0.0000000000
     52928      9538  TIP3      OH2            19.5321899961       35.3491498811      -36.5569306783  TIP3      9338            0.0000000000
     52929      9538  TIP3      H1             18.8121699207       35.8703390582      -36.9353056693  TIP3      9338            0.0000000000
     52930      9538  TIP3      H2             19.2366459953       35.1915664367      -35.6485887309  TIP3      9338            0.0000000000
     52931      9539  TIP3      OH2            22.0259686934       34.9320288640      -37.4709752703  TIP3      9339            0.0000000000
     52932      9539  TIP3      H1             21.1365360682       35.0994476322      -37.0807025027  TIP3      9339            0.0000000000
     52933      9539  TIP3      H2             21.9759824208       35.5204091395      -38.2452194830  TIP3      9339            0.0000000000
     52934      9540  TIP3      OH2            26.7287517623       34.8534990432      -38.2800578699  TIP3      9340            0.0000000000
     52935      9540  TIP3      H1             26.2748000102       35.3925884959      -38.9490941258  TIP3      9340            0.0000000000
     52936      9540  TIP3      H2             26.8748464077       35.5118043692      -37.5673780804  TIP3      9340            0.0000000000
     52937      9541  TIP3      OH2            29.0215982559       33.6650103525      -37.2719795731  TIP3      9341            0.0000000000
     52938      9541  TIP3      H1             28.1668778271       33.9425192315      -37.6437606038  TIP3      9341            0.0000000000
     52939      9541  TIP3      H2             29.5064251175       34.5064121080      -37.3531865657  TIP3      9341            0.0000000000
     52940      9542  TIP3      OH2            31.6174558669       35.2661013715      -37.0437978433  TIP3      9342            0.0000000000
     52941      9542  TIP3      H1             31.5383071714       36.2263371651      -37.2701628107  TIP3      9342            0.0000000000
     52942      9542  TIP3      H2             31.7918931789       34.8757223476      -37.9237455134  TIP3      9342            0.0000000000
     52943      9543  TIP3      OH2            19.0110556775       34.0189108232      -39.6004116146  TIP3      9343            0.0000000000
     52944      9543  TIP3      H1             18.9286007011       33.5547972655      -38.7386365424  TIP3      9343            0.0000000000
     52945      9543  TIP3      H2             19.8274120086       33.6364291279      -39.9889163242  TIP3      9343            0.0000000000
     52946      9544  TIP3      OH2            21.0920918608       32.7218773410      -40.9476183426  TIP3      9344            0.0000000000
     52947      9544  TIP3      H1             20.9269602753       31.7885019768      -40.7156130831  TIP3      9344            0.0000000000
     52948      9544  TIP3      H2             21.9501975870       32.8729176082      -40.4981825489  TIP3      9344            0.0000000000
     52949      9545  TIP3      OH2            23.7008438600       33.2122185878      -40.0695923357  TIP3      9345            0.0000000000
     52950      9545  TIP3      H1             23.8504300435       32.2852533873      -40.3315967275  TIP3      9345            0.0000000000
     52951      9545  TIP3      H2             23.7405099121       33.1626437530      -39.1034594860  TIP3      9345            0.0000000000
     52952      9546  TIP3      OH2            27.1521261736       18.8671750139      -40.9455242901  TIP3      9346            0.0000000000
     52953      9546  TIP3      H1             26.4769863485       18.2269666087      -40.6554386940  TIP3      9346            0.0000000000
     52954      9546  TIP3      H2             27.7019429156       18.3236259642      -41.5204923565  TIP3      9346            0.0000000000
     52955      9547  TIP3      OH2            32.2838288286       16.9020746368      -40.8733650052  TIP3      9347            0.0000000000
     52956      9547  TIP3      H1             32.8946807765       17.4962535616      -41.3804784988  TIP3      9347            0.0000000000
     52957      9547  TIP3      H2             31.4016541668       17.2666598091      -41.1020372261  TIP3      9347            0.0000000000
     52958      9548  TIP3      OH2            33.9460107949       18.1573206059      -42.5992417341  TIP3      9348            0.0000000000
     52959      9548  TIP3      H1             34.6262323004       17.5705846200      -43.0047278192  TIP3      9348            0.0000000000
     52960      9548  TIP3      H2             34.4607628829       18.9899569977      -42.4783969878  TIP3      9348            0.0000000000
     52961      9549  TIP3      OH2            19.5215221097       17.4841071327      -43.0881501974  TIP3      9349            0.0000000000
     52962      9549  TIP3      H1             18.7245502053       17.2897201048      -43.6181350919  TIP3      9349            0.0000000000
     52963      9549  TIP3      H2             19.9769887999       16.6210091652      -43.1426883622  TIP3      9349            0.0000000000
     52964      9550  TIP3      OH2            18.2629264012       17.2402685630      -47.4120382910  TIP3      9350            0.0000000000
     52965      9550  TIP3      H1             18.7969745253       17.9156749955      -47.8763013526  TIP3      9350            0.0000000000
     52966      9550  TIP3      H2             17.7471601692       17.7966085894      -46.8004258990  TIP3      9350            0.0000000000
     52967      9551  TIP3      OH2            23.9869606810       17.4091572496      -43.3010544910  TIP3      9351            0.0000000000
     52968      9551  TIP3      H1             24.8879591359       17.7658445378      -43.3756327289  TIP3      9351            0.0000000000
     52969      9551  TIP3      H2             23.9558063662       17.1897316177      -42.3706787285  TIP3      9351            0.0000000000
     52970      9552  TIP3      OH2            29.7073583838       17.4268161180      -41.6768727487  TIP3      9352            0.0000000000
     52971      9552  TIP3      H1             29.6506530181       17.5412340782      -42.6347296176  TIP3      9352            0.0000000000
     52972      9552  TIP3      H2             29.3173935586       16.5273917565      -41.5434092405  TIP3      9352            0.0000000000
     52973      9553  TIP3      OH2            30.9890361040       17.4508533787      -46.0072689722  TIP3      9353            0.0000000000
     52974      9553  TIP3      H1             30.2413807182       18.0439490338      -46.1785627724  TIP3      9353            0.0000000000
     52975      9553  TIP3      H2             30.5341285130       16.6057956622      -45.7881301926  TIP3      9353            0.0000000000
     52976      9554  TIP3      OH2            18.2520696312       33.1928216862      -46.4373309711  TIP3      9354            0.0000000000
     52977      9554  TIP3      H1             17.5031872261       33.1751840665      -47.0512733528  TIP3      9354            0.0000000000
     52978      9554  TIP3      H2             18.2086926824       34.1152844139      -46.1549991672  TIP3      9354            0.0000000000
     52979      9555  TIP3      OH2            20.0943984169       19.1426644522      -48.8479871384  TIP3      9355            0.0000000000
     52980      9555  TIP3      H1             20.6238243761       18.5082995499      -49.3424475967  TIP3      9355            0.0000000000
     52981      9555  TIP3      H2             20.7544580111       19.5064939926      -48.2298655220  TIP3      9355            0.0000000000
     52982      9556  TIP3      OH2            25.1665977726       19.4420544296      -46.4621744969  TIP3      9356            0.0000000000
     52983      9556  TIP3      H1             25.3950891755       18.8463117792      -45.7306685458  TIP3      9356            0.0000000000
     52984      9556  TIP3      H2             25.1998307787       20.2896276890      -45.9652346530  TIP3      9356            0.0000000000
     52985      9557  TIP3      OH2            27.0675376666       34.4877019960      -48.0215044668  TIP3      9357            0.0000000000
     52986      9557  TIP3      H1             28.0034179504       34.7493073945      -48.1911191098  TIP3      9357            0.0000000000
     52987      9557  TIP3      H2             26.8863118031       33.9880780959      -48.8441358141  TIP3      9357            0.0000000000
     52988      9558  TIP3      OH2            33.8452743828       33.9958553853      -45.3259823521  TIP3      9358            0.0000000000
     52989      9558  TIP3      H1             33.5539015978       33.2191777101      -45.8583280370  TIP3      9358            0.0000000000
     52990      9558  TIP3      H2             33.6569994259       34.7565220676      -45.9149715544  TIP3      9358            0.0000000000
     52991      9559  TIP3      OH2            19.4041981961       18.0251832968      -33.6377298511  TIP3      9359            0.0000000000
     52992      9559  TIP3      H1             19.0175006725       17.2256965251      -33.2377786182  TIP3      9359            0.0000000000
     52993      9559  TIP3      H2             20.3153160179       17.9742490610      -33.2611238277  TIP3      9359            0.0000000000
     52994      9560  TIP3      OH2            21.4038386740       17.4099470809      -31.9899635592  TIP3      9360            0.0000000000
     52995      9560  TIP3      H1             22.2958249840       17.0719442719      -32.2085382991  TIP3      9360            0.0000000000
     52996      9560  TIP3      H2             21.0297988445       16.6014542679      -31.5893045536  TIP3      9360            0.0000000000
     52997      9561  TIP3      OH2            20.3444592403       34.3732554489      -49.0894351632  TIP3      9361            0.0000000000
     52998      9561  TIP3      H1             19.7826758898       34.3762693620      -48.3097605275  TIP3      9361            0.0000000000
     52999      9561  TIP3      H2             20.8456880985       33.5493549205      -49.0604226387  TIP3      9361            0.0000000000
     53000      9562  TIP3      OH2            29.8039191854       16.6902392691      -31.8470605738  TIP3      9362            0.0000000000
     53001      9562  TIP3      H1             29.9033266760       16.2212463770      -30.9952173760  TIP3      9362            0.0000000000
     53002      9562  TIP3      H2             30.7200579714       16.6713776877      -32.1925127534  TIP3      9362            0.0000000000
     53003      9563  TIP3      OH2            33.0164588042       32.7464450703      -33.2103908107  TIP3      9363            0.0000000000
     53004      9563  TIP3      H1             32.2132825427       32.6089171543      -33.7585393893  TIP3      9363            0.0000000000
     53005      9563  TIP3      H2             32.8946665143       33.6937501923      -32.9923424418  TIP3      9363            0.0000000000
     53006      9564  TIP3      OH2            38.5643650035       25.6215797097      -38.0445385336  TIP3      9364            0.0000000000
     53007      9564  TIP3      H1             38.7528363192       24.8427532893      -37.4717601909  TIP3      9364            0.0000000000
     53008      9564  TIP3      H2             39.4303400231       26.0592927749      -38.0463340810  TIP3      9364            0.0000000000
     53009      9565  TIP3      OH2           -40.3932778281       29.4559088162      -39.3042090046  TIP3      9365            0.0000000000
     53010      9565  TIP3      H1            -40.6074063024       28.9145256223      -40.0907350826  TIP3      9365            0.0000000000
     53011      9565  TIP3      H2            -39.5360083494       29.7842969156      -39.5882445809  TIP3      9365            0.0000000000
     53012      9566  TIP3      OH2            36.1992021258       23.5188853742      -44.1935559812  TIP3      9366            0.0000000000
     53013      9566  TIP3      H1             35.8061241757       24.4149255469      -44.2512781528  TIP3      9366            0.0000000000
     53014      9566  TIP3      H2             35.6320409619       23.0149246856      -44.7858106401  TIP3      9366            0.0000000000
     53015      9567  TIP3      OH2            36.9454015818       25.7837165743      -42.0578607941  TIP3      9367            0.0000000000
     53016      9567  TIP3      H1             37.2205680632       24.9677599248      -41.5925238244  TIP3      9367            0.0000000000
     53017      9567  TIP3      H2             37.6665471363       25.8950860209      -42.6974321479  TIP3      9367            0.0000000000
     53018      9568  TIP3      OH2            37.5887222228       23.2314436326      -41.0175390218  TIP3      9368            0.0000000000
     53019      9568  TIP3      H1             38.2851131402       22.7448231070      -40.5371600289  TIP3      9368            0.0000000000
     53020      9568  TIP3      H2             37.7376401362       22.9090456450      -41.9177040284  TIP3      9368            0.0000000000
     53021      9569  TIP3      OH2            39.3758517067       21.1322635735      -39.6967617205  TIP3      9369            0.0000000000
     53022      9569  TIP3      H1             39.7678894004       21.9142532833      -39.2469357308  TIP3      9369            0.0000000000
     53023      9569  TIP3      H2             39.9450762493       21.0092875354      -40.4784320361  TIP3      9369            0.0000000000
     53024      9570  TIP3      OH2            36.9960375410       28.9975224409      -45.8300500971  TIP3      9370            0.0000000000
     53025      9570  TIP3      H1             36.5925727984       29.2275368366      -46.6738368752  TIP3      9370            0.0000000000
     53026      9570  TIP3      H2             36.9983955576       29.8263053226      -45.3009463784  TIP3      9370            0.0000000000
     53027      9571  TIP3      OH2            38.9683235153       26.0354678145      -35.2416683535  TIP3      9371            0.0000000000
     53028      9571  TIP3      H1             39.2139318811       26.7764608278      -34.6530725506  TIP3      9371            0.0000000000
     53029      9571  TIP3      H2             38.1312431518       26.3124550676      -35.6381438214  TIP3      9371            0.0000000000
     53030      9572  TIP3      OH2            36.1747609542       28.1894122331      -36.3528130835  TIP3      9372            0.0000000000
     53031      9572  TIP3      H1             35.7949614944       28.0985626191      -37.2410290089  TIP3      9372            0.0000000000
     53032      9572  TIP3      H2             36.3227342178       27.2420531440      -36.1564397289  TIP3      9372            0.0000000000
     53033      9573  TIP3      OH2            36.0353611836       30.9258296516      -39.5981182992  TIP3      9373            0.0000000000
     53034      9573  TIP3      H1             36.9911281916       30.7828511169      -39.5816987470  TIP3      9373            0.0000000000
     53035      9573  TIP3      H2             35.9233802765       31.7388785873      -39.0867449587  TIP3      9373            0.0000000000
     53036      9574  TIP3      OH2            39.0153534663       33.2730017117      -43.5713917064  TIP3      9374            0.0000000000
     53037      9574  TIP3      H1             39.3281074065       33.3251811028      -42.6380643063  TIP3      9374            0.0000000000
     53038      9574  TIP3      H2             38.0682873709       33.2953957836      -43.5258865279  TIP3      9374            0.0000000000
     53039      9575  TIP3      OH2            38.4854831154       29.5260643115      -35.3932587038  TIP3      9375            0.0000000000
     53040      9575  TIP3      H1             38.7733573982       29.1073723089      -34.5584870760  TIP3      9375            0.0000000000
     53041      9575  TIP3      H2             37.6644368062       29.0770041818      -35.6541998857  TIP3      9375            0.0000000000
     53042      9576  TIP3      OH2            38.9283426556       23.2187165615      -36.4941878907  TIP3      9376            0.0000000000
     53043      9576  TIP3      H1             38.9656082863       23.5567513505      -35.5935543702  TIP3      9376            0.0000000000
     53044      9576  TIP3      H2             38.5215009004       22.3474525616      -36.3721883487  TIP3      9376            0.0000000000
     53045      9577  TIP3      OH2            35.5745650006       20.3094208757      -42.5553827383  TIP3      9377            0.0000000000
     53046      9577  TIP3      H1             36.2690728282       20.2587518032      -41.8572109992  TIP3      9377            0.0000000000
     53047      9577  TIP3      H2             36.0259680962       19.9348447424      -43.3295912949  TIP3      9377            0.0000000000
     53048      9578  TIP3      OH2            36.8280050147       21.0007843334      -47.1777597507  TIP3      9378            0.0000000000
     53049      9578  TIP3      H1             37.3278143771       21.6171639782      -47.7610872490  TIP3      9378            0.0000000000
     53050      9578  TIP3      H2             36.1615806173       21.6414925904      -46.8580998619  TIP3      9378            0.0000000000
     53051      9579  TIP3      OH2            38.5559864991       22.2856285956      -43.6030754767  TIP3      9379            0.0000000000
     53052      9579  TIP3      H1             37.6315275162       22.2863321312      -43.8799531489  TIP3      9379            0.0000000000
     53053      9579  TIP3      H2             38.8870537011       21.3741561732      -43.7118601095  TIP3      9379            0.0000000000
     53054      9580  TIP3      OH2            39.0068736779       28.0380431996      -33.2460023448  TIP3      9380            0.0000000000
     53055      9580  TIP3      H1             39.6245401402       28.1958177196      -32.5502778473  TIP3      9380            0.0000000000
     53056      9580  TIP3      H2             38.2002432671       28.0937406701      -32.6900882552  TIP3      9380            0.0000000000
     53057      9581  TIP3      OH2            39.2061465276       27.2990588061      -40.8338747949  TIP3      9381            0.0000000000
     53058      9581  TIP3      H1             40.0687093069       27.3085735641      -41.2782741714  TIP3      9381            0.0000000000
     53059      9581  TIP3      H2             39.3695292332       26.6073300604      -40.1495863714  TIP3      9381            0.0000000000
     53060      9582  TIP3      OH2            36.3609993314       25.7672272967      -35.2326671743  TIP3      9382            0.0000000000
     53061      9582  TIP3      H1             36.6605817371       25.2738410292      -34.4427294790  TIP3      9382            0.0000000000
     53062      9582  TIP3      H2             35.8306542602       25.1063422772      -35.7154495485  TIP3      9382            0.0000000000
     53063      9583  TIP3      OH2            37.6051627517       25.5792463031      -48.5730836338  TIP3      9383            0.0000000000
     53064      9583  TIP3      H1             38.1552612652       26.2655339823      -48.1521228317  TIP3      9383            0.0000000000
     53065      9583  TIP3      H2             36.6836794838       25.8686599624      -48.3542300058  TIP3      9383            0.0000000000
     53066      9584  TIP3      OH2            38.0688016511       20.4400096586      -35.7181746858  TIP3      9384            0.0000000000
     53067      9584  TIP3      H1             37.1618547328       20.7872149002      -35.7963083857  TIP3      9384            0.0000000000
     53068      9584  TIP3      H2             37.9499165420       19.5876714745      -35.2740353991  TIP3      9384            0.0000000000
     53069      9585  TIP3      OH2            37.7036261730       32.2328415185      -37.2940096512  TIP3      9385            0.0000000000
     53070      9585  TIP3      H1             37.9442608122       31.2928052778      -37.2762455982  TIP3      9385            0.0000000000
     53071      9585  TIP3      H2             37.9800169822       32.5230700709      -36.4112964388  TIP3      9385            0.0000000000
     53072      9586  TIP3      OH2            38.9352401955       27.5423670327      -47.1959500555  TIP3      9386            0.0000000000
     53073      9586  TIP3      H1             38.3169158586       27.8454578190      -46.4944782248  TIP3      9386            0.0000000000
     53074      9586  TIP3      H2             39.4714989492       28.3189942789      -47.3225868741  TIP3      9386            0.0000000000
     53075      9587  TIP3      OH2            39.2284093263       30.4008542137      -48.0613806221  TIP3      9387            0.0000000000
     53076      9587  TIP3      H1             40.0715710275       30.8269483921      -47.8426685228  TIP3      9387            0.0000000000
     53077      9587  TIP3      H2             39.6748638784       29.8209925659      -48.7532309768  TIP3      9387            0.0000000000
     53078      9588  TIP3      OH2            37.8201938389       22.8354679726      -48.8345376135  TIP3      9388            0.0000000000
     53079      9588  TIP3      H1             37.8719292094       23.8092104187      -48.9085553466  TIP3      9388            0.0000000000
     53080      9588  TIP3      H2             37.0932805961       22.6252511948      -49.4446821062  TIP3      9388            0.0000000000
     53081      9589  TIP3      OH2            38.6536959409       17.6401966465      -40.3200182726  TIP3      9389            0.0000000000
     53082      9589  TIP3      H1             38.4774732340       17.6781330218      -41.2875934335  TIP3      9389            0.0000000000
     53083      9589  TIP3      H2             38.2854955334       16.7806852646      -40.0579149949  TIP3      9389            0.0000000000
     53084      9590  TIP3      OH2            37.4538831643       31.3869029521      -44.4563102001  TIP3      9390            0.0000000000
     53085      9590  TIP3      H1             36.7512268886       32.0158308389      -44.2347443473  TIP3      9390            0.0000000000
     53086      9590  TIP3      H2             38.1817848753       31.9788391611      -44.7390382691  TIP3      9390            0.0000000000
     53087      9591  TIP3      OH2            36.8613803917       34.1775783843      -32.9180102623  TIP3      9391            0.0000000000
     53088      9591  TIP3      H1             37.4655154957       33.9721667504      -32.1735423086  TIP3      9391            0.0000000000
     53089      9591  TIP3      H2             36.4330078660       33.3157261537      -33.0955970403  TIP3      9391            0.0000000000
     53090      9592  TIP3      OH2            36.7711269388       27.9505390584      -31.9239467771  TIP3      9392            0.0000000000
     53091      9592  TIP3      H1             36.9538165426       27.0466011021      -32.2379517943  TIP3      9392            0.0000000000
     53092      9592  TIP3      H2             36.0233538030       28.2164297035      -32.4912150511  TIP3      9392            0.0000000000
     53093      9593  TIP3      OH2            37.6987025851       25.2010947900      -32.5049312080  TIP3      9393            0.0000000000
     53094      9593  TIP3      H1             38.0128955227       24.3037599723      -32.6636637530  TIP3      9393            0.0000000000
     53095      9593  TIP3      H2             37.4231281093       25.1680247611      -31.5755779874  TIP3      9393            0.0000000000
     53096      9594  TIP3      OH2            38.4043779735       20.6156424586      -32.4047508415  TIP3      9394            0.0000000000
     53097      9594  TIP3      H1             38.6584726760       19.9066403469      -33.0285986407  TIP3      9394            0.0000000000
     53098      9594  TIP3      H2             38.4486577715       20.1803952184      -31.5346536777  TIP3      9394            0.0000000000
     53099      9595  TIP3      OH2            36.8216109563       29.5834870933      -48.6869589608  TIP3      9395            0.0000000000
     53100      9595  TIP3      H1             37.7900852392       29.6738634381      -48.5918621671  TIP3      9395            0.0000000000
     53101      9595  TIP3      H2             36.8290202381       29.0526183030      -49.5053584755  TIP3      9395            0.0000000000
     53102      9596  TIP3      OH2            35.5871445225       35.1983438274      -43.7820176239  TIP3      9396            0.0000000000
     53103      9596  TIP3      H1             34.8174419572       34.7503950686      -44.2061924228  TIP3      9396            0.0000000000
     53104      9596  TIP3      H2             35.8094001001       34.5745408767      -43.0635240750  TIP3      9396            0.0000000000
     53105      9597  TIP3      OH2            36.3876380655       33.3255296294      -41.8937882540  TIP3      9397            0.0000000000
     53106      9597  TIP3      H1             36.0304392824       32.4483828001      -41.6851242263  TIP3      9397            0.0000000000
     53107      9597  TIP3      H2             36.6074700613       33.6639547082      -41.0057162632  TIP3      9397            0.0000000000
     53108      9598  TIP3      OH2            36.4467798230       26.4013280393      -39.3992805221  TIP3      9398            0.0000000000
     53109      9598  TIP3      H1             36.6363237892       26.3160252562      -40.3579411639  TIP3      9398            0.0000000000
     53110      9598  TIP3      H2             37.3426830775       26.2167484984      -39.0286193433  TIP3      9398            0.0000000000
     53111      9599  TIP3      OH2            36.0045306588       21.7276363730      -33.2328138918  TIP3      9399            0.0000000000
     53112      9599  TIP3      H1             36.9373026685       21.5170165426      -33.0416599102  TIP3      9399            0.0000000000
     53113      9599  TIP3      H2             35.5746948036       20.8931622504      -32.9701441475  TIP3      9399            0.0000000000
     53114      9600  TIP3      OH2            37.1619087423       20.0089931241      -40.3893600655  TIP3      9400            0.0000000000
     53115      9600  TIP3      H1             37.6981378339       19.2102967438      -40.1984819141  TIP3      9400            0.0000000000
     53116      9600  TIP3      H2             37.7931680797       20.6583557658      -40.0243524044  TIP3      9400            0.0000000000
     53117      9601  TIP3      OH2            35.5343672344       23.0088137791      -39.3721052539  TIP3      9401            0.0000000000
     53118      9601  TIP3      H1             36.1399850401       22.7642558333      -40.1076786200  TIP3      9401            0.0000000000
     53119      9601  TIP3      H2             35.9886858277       23.8110024989      -39.0792284703  TIP3      9401            0.0000000000
     53120      9602  TIP3      OH2            35.9186363505       19.2422403295      -45.3031592410  TIP3      9402            0.0000000000
     53121      9602  TIP3      H1             34.9759202568       19.4502095849      -45.4130930972  TIP3      9402            0.0000000000
     53122      9602  TIP3      H2             36.3316978757       19.7582122900      -46.0190611133  TIP3      9402            0.0000000000
     53123      9603  TIP3      OH2            35.8476927856       17.9048294504      -36.9800947489  TIP3      9403            0.0000000000
     53124      9603  TIP3      H1             35.1732438989       17.7300470997      -36.2974745611  TIP3      9403            0.0000000000
     53125      9603  TIP3      H2             35.4153166651       18.5902649367      -37.5294920350  TIP3      9403            0.0000000000
     53126      9604  TIP3      OH2            38.0954722721       31.0848647773      -32.7724321182  TIP3      9404            0.0000000000
     53127      9604  TIP3      H1             37.2944185853       31.2959429287      -33.2869605400  TIP3      9404            0.0000000000
     53128      9604  TIP3      H2             37.7409913139       31.0620379507      -31.8845071915  TIP3      9404            0.0000000000
     53129      9605  TIP3      OH2            38.3123542322       35.3293328333      -36.5420490090  TIP3      9405            0.0000000000
     53130      9605  TIP3      H1             37.5814236897       35.8357154469      -36.9259582759  TIP3      9405            0.0000000000
     53131      9605  TIP3      H2             38.0211027098       35.1492967975      -35.6389428779  TIP3      9405            0.0000000000
     53132      9606  TIP3      OH2            37.8062189827       33.9722954127      -39.6028150944  TIP3      9406            0.0000000000
     53133      9606  TIP3      H1             37.7716734936       33.5734185519      -38.7007396823  TIP3      9406            0.0000000000
     53134      9606  TIP3      H2             38.6721198390       33.6982433804      -39.9330130943  TIP3      9406            0.0000000000
     53135      9607  TIP3      OH2            38.0591189792       17.5121758707      -42.9238269699  TIP3      9407            0.0000000000
     53136      9607  TIP3      H1             37.4509276682       17.3147534332      -43.6516212291  TIP3      9407            0.0000000000
     53137      9607  TIP3      H2             38.7941036217       16.9034282674      -43.0723237770  TIP3      9407            0.0000000000
     53138      9608  TIP3      OH2            37.1128842681       17.2358641404      -47.3805226539  TIP3      9408            0.0000000000
     53139      9608  TIP3      H1             37.6406784206       17.9009314531      -47.8825733944  TIP3      9408            0.0000000000
     53140      9608  TIP3      H2             36.5934440625       17.8188429556      -46.8025192793  TIP3      9408            0.0000000000
     53141      9609  TIP3      OH2            37.0640634468       33.2191833569      -46.4820050262  TIP3      9409            0.0000000000
     53142      9609  TIP3      H1             36.2513235117       33.3468220643      -47.0078925625  TIP3      9409            0.0000000000
     53143      9609  TIP3      H2             37.0852452120       34.1047373209      -46.0959188622  TIP3      9409            0.0000000000
     53144      9610  TIP3      OH2            38.9496999510       19.0886483925      -48.7177164871  TIP3      9410            0.0000000000
     53145      9610  TIP3      H1             39.4715714100       18.6350590530      -49.4081262767  TIP3      9410            0.0000000000
     53146      9610  TIP3      H2             39.6418910839       19.5791976618      -48.2706988647  TIP3      9410            0.0000000000
     53147      9611  TIP3      OH2            38.3237014159       18.0289696907      -33.5532031194  TIP3      9411            0.0000000000
     53148      9611  TIP3      H1             37.9094712155       17.2145571768      -33.2039416010  TIP3      9411            0.0000000000
     53149      9611  TIP3      H2             39.2572834326       17.9383662613      -33.3219142114  TIP3      9411            0.0000000000
     53150      9612  TIP3      OH2            39.1108711310       34.1649122336      -49.1283546034  TIP3      9412            0.0000000000
     53151      9612  TIP3      H1             38.7374415110       34.4794127035      -48.2953403085  TIP3      9412            0.0000000000
     53152      9612  TIP3      H2             39.8567459755       33.5861056666      -48.9987513317  TIP3      9412            0.0000000000
     53153      9613  TIP3      OH2           -22.1369522767       38.8406935447      -38.4970886099  TIP3      9413            0.0000000000
     53154      9613  TIP3      H1            -21.9318525087       39.4406404005      -37.7807048288  TIP3      9413            0.0000000000
     53155      9613  TIP3      H2            -21.6048360039       39.2067507503      -39.2139241819  TIP3      9413            0.0000000000
     53156      9614  TIP3      OH2           -34.3766044085       39.6121312783      -41.7517175088  TIP3      9414            0.0000000000
     53157      9614  TIP3      H1            -34.3800269458       40.4857037619      -42.1661216120  TIP3      9414            0.0000000000
     53158      9614  TIP3      H2            -34.8467935146       39.0794642680      -42.4162091490  TIP3      9414            0.0000000000
     53159      9615  TIP3      OH2           -26.5610745952      -40.1551832067      -43.6660998595  TIP3      9415            0.0000000000
     53160      9615  TIP3      H1            -26.0638452790      -40.4017027173      -42.8429531011  TIP3      9415            0.0000000000
     53161      9615  TIP3      H2            -26.0368174113      -39.4102106648      -43.9839068038  TIP3      9415            0.0000000000
     53162      9616  TIP3      OH2           -35.5587231013       38.5810453621      -37.7248290970  TIP3      9416            0.0000000000
     53163      9616  TIP3      H1            -35.8357104425       39.1601452123      -38.4361668930  TIP3      9416            0.0000000000
     53164      9616  TIP3      H2            -36.2016393868       38.8290216347      -37.0109085477  TIP3      9416            0.0000000000
     53165      9617  TIP3      OH2           -24.9942064616       38.6918320796      -41.5532904280  TIP3      9417            0.0000000000
     53166      9617  TIP3      H1            -25.2676039508       38.1590788865      -40.7949313317  TIP3      9417            0.0000000000
     53167      9617  TIP3      H2            -24.3498723118       39.2521927350      -41.0797363102  TIP3      9417            0.0000000000
     53168      9618  TIP3      OH2           -24.5584328392       37.8444963192      -37.6414136536  TIP3      9418            0.0000000000
     53169      9618  TIP3      H1            -25.3284670849       38.4080068762      -37.7807577805  TIP3      9418            0.0000000000
     53170      9618  TIP3      H2            -23.8803277054       38.2396948837      -38.2228376442  TIP3      9418            0.0000000000
     53171      9619  TIP3      OH2           -31.5859705695       35.9243766615      -40.2079250794  TIP3      9419            0.0000000000
     53172      9619  TIP3      H1            -31.7459864389       34.9662172431      -40.3002389726  TIP3      9419            0.0000000000
     53173      9619  TIP3      H2            -32.4676114245       36.2436699082      -39.9229882323  TIP3      9419            0.0000000000
     53174      9620  TIP3      OH2           -23.2546113325       35.8104227485      -47.2943030989  TIP3      9420            0.0000000000
     53175      9620  TIP3      H1            -24.1729773448       35.9695904130      -46.9812324001  TIP3      9420            0.0000000000
     53176      9620  TIP3      H2            -23.0449220167       36.6945786912      -47.6581779887  TIP3      9420            0.0000000000
     53177      9621  TIP3      OH2           -34.2271415151       36.8017699678      -39.5024241873  TIP3      9421            0.0000000000
     53178      9621  TIP3      H1            -35.1484798341       36.6804348395      -39.8408111203  TIP3      9421            0.0000000000
     53179      9621  TIP3      H2            -34.3491393384       37.6388494675      -39.0225237549  TIP3      9421            0.0000000000
     53180      9622  TIP3      OH2           -29.6022128261       36.5001982294      -36.0850505579  TIP3      9422            0.0000000000
     53181      9622  TIP3      H1            -29.1904953435       36.0656248255      -35.3139213232  TIP3      9422            0.0000000000
     53182      9622  TIP3      H2            -30.5693075547       36.3583834339      -35.9626136451  TIP3      9422            0.0000000000
     53183      9623  TIP3      OH2           -29.8117134351       38.9131084458      -48.7188902010  TIP3      9423            0.0000000000
     53184      9623  TIP3      H1            -30.2818649007       39.0626035194      -47.8690040430  TIP3      9423            0.0000000000
     53185      9623  TIP3      H2            -30.3538357714       38.2315031991      -49.1149692572  TIP3      9423            0.0000000000
     53186      9624  TIP3      OH2           -33.1008451613       39.1984451745      -49.6409651546  TIP3      9424            0.0000000000
     53187      9624  TIP3      H1            -33.5951087945       39.0186055896      -48.8246229141  TIP3      9424            0.0000000000
     53188      9624  TIP3      H2            -33.6917480703       39.8469237290      -50.1058049266  TIP3      9424            0.0000000000
     53189      9625  TIP3      OH2           -39.7873929793       39.1186414842      -42.5885088444  TIP3      9425            0.0000000000
     53190      9625  TIP3      H1            -39.1410960024       39.1029572956      -41.8483998193  TIP3      9425            0.0000000000
     53191      9625  TIP3      H2            -39.3319388683       38.6981763745      -43.3355792866  TIP3      9425            0.0000000000
     53192      9626  TIP3      OH2           -31.5242531390       38.9570771456      -42.3060645191  TIP3      9426            0.0000000000
     53193      9626  TIP3      H1            -32.4385043125       39.2318344081      -42.0924930625  TIP3      9426            0.0000000000
     53194      9626  TIP3      H2            -31.0374782685       39.3462909168      -41.5507826317  TIP3      9426            0.0000000000
     53195      9627  TIP3      OH2           -27.1569939873       38.6467816517      -39.1095649960  TIP3      9427            0.0000000000
     53196      9627  TIP3      H1            -27.8514123741       38.7748094038      -38.4160126891  TIP3      9427            0.0000000000
     53197      9627  TIP3      H2            -27.7020336078       38.4998474440      -39.8913685623  TIP3      9427            0.0000000000
     53198      9628  TIP3      OH2           -35.3145415260       38.3812256808      -44.0277603238  TIP3      9428            0.0000000000
     53199      9628  TIP3      H1            -35.6314741657       37.4538020645      -44.0608119649  TIP3      9428            0.0000000000
     53200      9628  TIP3      H2            -34.5056842320       38.3354142109      -44.5428146386  TIP3      9428            0.0000000000
     53201      9629  TIP3      OH2           -27.2935665462      -40.1013668694      -47.9468167713  TIP3      9429            0.0000000000
     53202      9629  TIP3      H1            -28.1831151668      -40.0086062520      -48.3268104471  TIP3      9429            0.0000000000
     53203      9629  TIP3      H2            -26.9240116943      -39.2109290723      -47.9773418230  TIP3      9429            0.0000000000
     53204      9630  TIP3      OH2           -37.3521182046       39.3324031624      -35.7632080804  TIP3      9430            0.0000000000
     53205      9630  TIP3      H1            -38.2569942617       39.6868343317      -35.8025902204  TIP3      9430            0.0000000000
     53206      9630  TIP3      H2            -37.4628999822       38.4780879991      -35.3237832981  TIP3      9430            0.0000000000
     53207      9631  TIP3      OH2           -28.5429562780       38.8915209897      -36.8954845744  TIP3      9431            0.0000000000
     53208      9631  TIP3      H1            -27.9692379260       39.1348836047      -36.1638997096  TIP3      9431            0.0000000000
     53209      9631  TIP3      H2            -28.9975154865       38.1059452514      -36.5473799682  TIP3      9431            0.0000000000
     53210      9632  TIP3      OH2           -27.9127271361       38.6523398859      -45.6788535260  TIP3      9432            0.0000000000
     53211      9632  TIP3      H1            -27.6164593476       39.1142968589      -46.4964989513  TIP3      9432            0.0000000000
     53212      9632  TIP3      H2            -27.3643197565       39.0836214964      -44.9872619727  TIP3      9432            0.0000000000
     53213      9633  TIP3      OH2           -29.7766622617       37.4783406044      -44.0018786573  TIP3      9433            0.0000000000
     53214      9633  TIP3      H1            -30.1205553875       38.1345947457      -43.3524762797  TIP3      9433            0.0000000000
     53215      9633  TIP3      H2            -29.0925139279       38.0318440008      -44.4314365220  TIP3      9433            0.0000000000
     53216      9634  TIP3      OH2           -34.1276873374       38.5691142835      -47.1798253376  TIP3      9434            0.0000000000
     53217      9634  TIP3      H1            -34.1809399020       39.4752566754      -46.8538446755  TIP3      9434            0.0000000000
     53218      9634  TIP3      H2            -33.2206964510       38.2904568638      -46.9522964453  TIP3      9434            0.0000000000
     53219      9635  TIP3      OH2           -24.2461607417       38.9184215590      -34.8962646065  TIP3      9435            0.0000000000
     53220      9635  TIP3      H1            -24.9442012914       39.5825408160      -34.9201057509  TIP3      9435            0.0000000000
     53221      9635  TIP3      H2            -23.7223408048       39.1743091066      -35.6548063415  TIP3      9435            0.0000000000
     53222      9636  TIP3      OH2           -36.7114417135       36.4778069283      -40.3543068364  TIP3      9436            0.0000000000
     53223      9636  TIP3      H1            -36.9136039114       36.4746355977      -41.3145694549  TIP3      9436            0.0000000000
     53224      9636  TIP3      H2            -37.1658034951       35.6439554317      -40.0983866866  TIP3      9436            0.0000000000
     53225      9637  TIP3      OH2           -33.0879922902       38.4692217712      -36.8007012807  TIP3      9437            0.0000000000
     53226      9637  TIP3      H1            -32.5394872510       39.1075472614      -37.2930566396  TIP3      9437            0.0000000000
     53227      9637  TIP3      H2            -34.0204173776       38.6292491815      -37.0694641432  TIP3      9437            0.0000000000
     53228      9638  TIP3      OH2           -32.2549142668       36.1506334897      -36.1469989027  TIP3      9438            0.0000000000
     53229      9638  TIP3      H1            -32.4304446673       37.1125258631      -36.2938455800  TIP3      9438            0.0000000000
     53230      9638  TIP3      H2            -32.9959269092       35.7996134736      -36.6703097164  TIP3      9438            0.0000000000
     53231      9639  TIP3      OH2           -28.3623920917       39.4640569513      -33.7321910688  TIP3      9439            0.0000000000
     53232      9639  TIP3      H1            -29.2133424406       39.7311676681      -33.3798285990  TIP3      9439            0.0000000000
     53233      9639  TIP3      H2            -27.9753004905       39.1317799543      -32.9102525291  TIP3      9439            0.0000000000
     53234      9640  TIP3      OH2           -26.5195581275       37.9629999331      -31.3449275316  TIP3      9440            0.0000000000
     53235      9640  TIP3      H1            -26.8184017447       37.0459837717      -31.4859884509  TIP3      9440            0.0000000000
     53236      9640  TIP3      H2            -27.0071367175       38.3156018558      -30.5873193793  TIP3      9440            0.0000000000
     53237      9641  TIP3      OH2           -37.0643797717       39.3134696568      -32.3363681875  TIP3      9441            0.0000000000
     53238      9641  TIP3      H1            -36.7089358317       38.7016763332      -33.0139402731  TIP3      9441            0.0000000000
     53239      9641  TIP3      H2            -36.9908487251       38.8592949992      -31.4762048238  TIP3      9441            0.0000000000
     53240      9642  TIP3      OH2           -32.0141797382       35.6284915091      -33.4933944103  TIP3      9442            0.0000000000
     53241      9642  TIP3      H1            -31.3721767265       34.8864215586      -33.4926167362  TIP3      9442            0.0000000000
     53242      9642  TIP3      H2            -32.1564634785       35.7062816487      -34.4597541710  TIP3      9442            0.0000000000
     53243      9643  TIP3      OH2           -31.6417953058       37.1483279088      -31.3598780796  TIP3      9443            0.0000000000
     53244      9643  TIP3      H1            -31.8491497351       36.6686286860      -32.2007249958  TIP3      9443            0.0000000000
     53245      9643  TIP3      H2            -32.2408848808       37.9231676047      -31.4445780233  TIP3      9443            0.0000000000
     53246      9644  TIP3      OH2           -23.8798204482       39.0393673621      -50.0313819066  TIP3      9444            0.0000000000
     53247      9644  TIP3      H1            -23.3247692213       38.8133103425      -49.2656772253  TIP3      9444            0.0000000000
     53248      9644  TIP3      H2            -24.7678568263       38.8125764491      -49.7385932207  TIP3      9444            0.0000000000
     53249      9645  TIP3      OH2           -21.3547757729       36.0458021252      -31.4680368234  TIP3      9445            0.0000000000
     53250      9645  TIP3      H1            -20.9937636751       35.4272226836      -32.1178787537  TIP3      9445            0.0000000000
     53251      9645  TIP3      H2            -21.2593217398       36.8975303434      -31.9398045218  TIP3      9445            0.0000000000
     53252      9646  TIP3      OH2           -23.6591383787       38.0112454070      -44.9242859379  TIP3      9446            0.0000000000
     53253      9646  TIP3      H1            -23.4503487959       37.5798003631      -44.0780441452  TIP3      9446            0.0000000000
     53254      9646  TIP3      H2            -24.2817337996       37.4005819955      -45.3592397469  TIP3      9446            0.0000000000
     53255      9647  TIP3      OH2           -38.1683515562       38.7821212926      -40.4842701808  TIP3      9447            0.0000000000
     53256      9647  TIP3      H1            -37.7519181468       37.9769143065      -40.1175184570  TIP3      9447            0.0000000000
     53257      9647  TIP3      H2            -38.0011578972       39.4588886534      -39.8251368580  TIP3      9447            0.0000000000
     53258      9648  TIP3      OH2           -21.8126413955       38.2704845980      -33.1462996060  TIP3      9448            0.0000000000
     53259      9648  TIP3      H1            -22.7667976298       38.4705772799      -33.1162727592  TIP3      9448            0.0000000000
     53260      9648  TIP3      H2            -21.7964373666       37.6085953746      -33.8553794317  TIP3      9448            0.0000000000
     53261      9649  TIP3      OH2           -21.7692607787       38.0248922508      -48.3725030408  TIP3      9449            0.0000000000
     53262      9649  TIP3      H1            -21.3604909123       37.3944310137      -48.9660461587  TIP3      9449            0.0000000000
     53263      9649  TIP3      H2            -21.1772845736       38.7950458580      -48.3928835309  TIP3      9449            0.0000000000
     53264      9650  TIP3      OH2           -39.4716732078       38.1652168975      -45.3641746301  TIP3      9450            0.0000000000
     53265      9650  TIP3      H1            -40.4203719538       38.3328151464      -45.4315365354  TIP3      9450            0.0000000000
     53266      9650  TIP3      H2            -39.0468307378       38.7169514275      -46.0242198705  TIP3      9450            0.0000000000
     53267      9651  TIP3      OH2            40.3195146405       36.9463831528      -36.9629753544  TIP3      9451            0.0000000000
     53268      9651  TIP3      H1             39.6009922136       36.5561390741      -36.4339480633  TIP3      9451            0.0000000000
     53269      9651  TIP3      H2             39.7686104251       37.4622075864      -37.5578592732  TIP3      9451            0.0000000000
     53270      9652  TIP3      OH2           -22.8102689688       36.2868167765      -35.2439010774  TIP3      9452            0.0000000000
     53271      9652  TIP3      H1            -23.6572693812       36.5495479303      -35.6506924014  TIP3      9452            0.0000000000
     53272      9652  TIP3      H2            -22.6483959048       35.4469318418      -35.7291798869  TIP3      9452            0.0000000000
     53273      9653  TIP3      OH2           -29.3744738009       37.7036366085      -40.9028214813  TIP3      9453            0.0000000000
     53274      9653  TIP3      H1            -30.0998553516       37.0930744960      -40.6922263379  TIP3      9453            0.0000000000
     53275      9653  TIP3      H2            -28.8691465531       37.1563545244      -41.5207717804  TIP3      9453            0.0000000000
     53276      9654  TIP3      OH2           -24.2946580646       35.7987553404      -40.8458885747  TIP3      9454            0.0000000000
     53277      9654  TIP3      H1            -23.6713199109       36.3586740749      -41.3738631608  TIP3      9454            0.0000000000
     53278      9654  TIP3      H2            -25.1679411273       36.1476017272      -41.1128083365  TIP3      9454            0.0000000000
     53279      9655  TIP3      OH2           -22.6084938064       36.9704705193      -42.5626442902  TIP3      9455            0.0000000000
     53280      9655  TIP3      H1            -21.9199776173       36.4356579924      -43.0198628841  TIP3      9455            0.0000000000
     53281      9655  TIP3      H2            -22.1287647960       37.8266287323      -42.4787094471  TIP3      9455            0.0000000000
     53282      9656  TIP3      OH2           -37.0130725591       36.3422174527      -43.0988260793  TIP3      9456            0.0000000000
     53283      9656  TIP3      H1            -37.8233158703       36.1711913920      -43.6184940548  TIP3      9456            0.0000000000
     53284      9656  TIP3      H2            -36.5838139505       35.4653805281      -43.1485755630  TIP3      9456            0.0000000000
     53285      9657  TIP3      OH2           -38.2885795331       36.1112556228      -47.3611769755  TIP3      9457            0.0000000000
     53286      9657  TIP3      H1            -37.7526191256       36.7565123522      -47.8656787044  TIP3      9457            0.0000000000
     53287      9657  TIP3      H2            -38.8338553853       36.6714098681      -46.7904676860  TIP3      9457            0.0000000000
     53288      9658  TIP3      OH2           -32.5722059916       36.2508721282      -43.3166293815  TIP3      9458            0.0000000000
     53289      9658  TIP3      H1            -31.6710302034       36.6174253836      -43.3681754115  TIP3      9458            0.0000000000
     53290      9658  TIP3      H2            -32.6317527021       36.0640149432      -42.3778835012  TIP3      9458            0.0000000000
     53291      9659  TIP3      OH2           -26.9187868282       36.3158295007      -41.6814786735  TIP3      9459            0.0000000000
     53292      9659  TIP3      H1            -26.9038004655       36.3842227835      -42.6431518021  TIP3      9459            0.0000000000
     53293      9659  TIP3      H2            -27.2834746913       35.4116407874      -41.5341788841  TIP3      9459            0.0000000000
     53294      9660  TIP3      OH2           -25.6048554367       36.3513189187      -46.0025291307  TIP3      9460            0.0000000000
     53295      9660  TIP3      H1            -26.3522686445       36.9251937874      -46.1641883842  TIP3      9460            0.0000000000
     53296      9660  TIP3      H2            -26.0243261540       35.4937489102      -45.7729725826  TIP3      9460            0.0000000000
     53297      9661  TIP3      OH2           -36.4435766349       38.0753258353      -48.8706468447  TIP3      9461            0.0000000000
     53298      9661  TIP3      H1            -35.9929732272       37.3642658686      -49.3509458408  TIP3      9461            0.0000000000
     53299      9661  TIP3      H2            -35.7729245474       38.2987126911      -48.2068862735  TIP3      9461            0.0000000000
     53300      9662  TIP3      OH2           -31.3271578136       38.3218088745      -46.3932219291  TIP3      9462            0.0000000000
     53301      9662  TIP3      H1            -31.1911697879       37.6928799762      -45.6651357718  TIP3      9462            0.0000000000
     53302      9662  TIP3      H2            -31.4416024405       39.1617507568      -45.9242929952  TIP3      9462            0.0000000000
     53303      9663  TIP3      OH2           -37.1890464289       36.8876102060      -33.6047037804  TIP3      9463            0.0000000000
     53304      9663  TIP3      H1            -37.5778055570       36.0805206102      -33.2275170549  TIP3      9463            0.0000000000
     53305      9663  TIP3      H2            -36.2671699443       36.8227563000      -33.2668215009  TIP3      9463            0.0000000000
     53306      9664  TIP3      OH2           -35.1598380827       36.2607308945      -31.9879566813  TIP3      9464            0.0000000000
     53307      9664  TIP3      H1            -34.2897454012       35.8886404139      -32.2282198664  TIP3      9464            0.0000000000
     53308      9664  TIP3      H2            -35.5503682352       35.4613540951      -31.5909890626  TIP3      9464            0.0000000000
     53309      9665  TIP3      OH2           -26.7627855124       35.4532791499      -31.8597128770  TIP3      9465            0.0000000000
     53310      9665  TIP3      H1            -26.6542009901       35.0632011309      -30.9734077398  TIP3      9465            0.0000000000
     53311      9665  TIP3      H2            -25.8354808651       35.5113553424      -32.1741528526  TIP3      9465            0.0000000000
     53312      9666  TIP3      OH2            -3.2789789342       38.8468246011      -38.4882849993  TIP3      9466            0.0000000000
     53313      9666  TIP3      H1             -3.0703594381       39.4543205456      -37.7744283873  TIP3      9466            0.0000000000
     53314      9666  TIP3      H2             -2.7463861015       39.2110788948      -39.2061909721  TIP3      9466            0.0000000000
     53315      9667  TIP3      OH2           -15.5247559488       39.6196902564      -41.7477538218  TIP3      9467            0.0000000000
     53316      9667  TIP3      H1            -15.5134251574       40.4941686560      -42.1615025938  TIP3      9467            0.0000000000
     53317      9667  TIP3      H2            -15.9882259173       39.0847085352      -42.4164117641  TIP3      9467            0.0000000000
     53318      9668  TIP3      OH2            -7.7015563500      -40.1581645766      -43.6651477378  TIP3      9468            0.0000000000
     53319      9668  TIP3      H1             -7.2078844422      -40.4007726446      -42.8391090409  TIP3      9468            0.0000000000
     53320      9668  TIP3      H2             -7.1765276531      -39.4136728871      -43.9825566015  TIP3      9468            0.0000000000
     53321      9669  TIP3      OH2           -16.7089361375       38.5614646844      -37.7301448161  TIP3      9469            0.0000000000
     53322      9669  TIP3      H1            -16.9598420902       39.1665618090      -38.4280225942  TIP3      9469            0.0000000000
     53323      9669  TIP3      H2            -17.3359430551       38.8184938454      -37.0073897737  TIP3      9469            0.0000000000
     53324      9670  TIP3      OH2            -6.1342594566       38.6879428578      -41.5541279664  TIP3      9470            0.0000000000
     53325      9670  TIP3      H1             -6.4124060497       38.1599497118      -40.7944229117  TIP3      9470            0.0000000000
     53326      9670  TIP3      H2             -5.4939485065       39.2526218136      -41.0805346582  TIP3      9470            0.0000000000
     53327      9671  TIP3      OH2            -5.7020977801       37.8400043862      -37.6419136583  TIP3      9471            0.0000000000
     53328      9671  TIP3      H1             -6.4697389046       38.4054019123      -37.7786893222  TIP3      9471            0.0000000000
     53329      9671  TIP3      H2             -5.0214047491       38.2390458642      -38.2192555161  TIP3      9471            0.0000000000
     53330      9672  TIP3      OH2           -12.7251783556       35.9272808292      -40.2084888735  TIP3      9472            0.0000000000
     53331      9672  TIP3      H1            -12.8866814075       34.9666770415      -40.3003122103  TIP3      9472            0.0000000000
     53332      9672  TIP3      H2            -13.6092638583       36.2431050716      -39.9232764616  TIP3      9472            0.0000000000
     53333      9673  TIP3      OH2            -4.3848048667       35.8073086126      -47.2716475119  TIP3      9473            0.0000000000
     53334      9673  TIP3      H1             -5.3179956176       35.9586575921      -46.9945847316  TIP3      9473            0.0000000000
     53335      9673  TIP3      H2             -4.1975619009       36.6874433950      -47.6644107133  TIP3      9473            0.0000000000
     53336      9674  TIP3      OH2           -15.3739090528       36.7926522092      -39.4957111129  TIP3      9474            0.0000000000
     53337      9674  TIP3      H1            -16.2863976483       36.6727494821      -39.8451589338  TIP3      9474            0.0000000000
     53338      9674  TIP3      H2            -15.4955210266       37.6345986475      -39.0235156969  TIP3      9474            0.0000000000
     53339      9675  TIP3      OH2           -10.7423433074       36.5019641852      -36.0841284739  TIP3      9475            0.0000000000
     53340      9675  TIP3      H1            -10.3339342391       36.0657382022      -35.3138649000  TIP3      9475            0.0000000000
     53341      9675  TIP3      H2            -11.7128143905       36.3582964594      -35.9623507900  TIP3      9475            0.0000000000
     53342      9676  TIP3      OH2           -11.0373334378       39.0262286567      -48.7574290473  TIP3      9476            0.0000000000
     53343      9676  TIP3      H1            -11.4207035255       39.0292532270      -47.8603319140  TIP3      9476            0.0000000000
     53344      9676  TIP3      H2            -11.3709461842       38.1896934973      -49.1045800186  TIP3      9476            0.0000000000
     53345      9677  TIP3      OH2           -14.2546526859       39.2059331759      -49.6471246099  TIP3      9477            0.0000000000
     53346      9677  TIP3      H1            -14.7260584504       39.0113397691      -48.8222545243  TIP3      9477            0.0000000000
     53347      9677  TIP3      H2            -14.8530838585       39.8568526497      -50.1076662628  TIP3      9477            0.0000000000
     53348      9678  TIP3      OH2           -20.9608359636       39.1221058906      -42.5553184105  TIP3      9478            0.0000000000
     53349      9678  TIP3      H1            -20.2800808041       39.1187955827      -41.8499782471  TIP3      9478            0.0000000000
     53350      9678  TIP3      H2            -20.5004771023       38.7716543764      -43.3459776227  TIP3      9478            0.0000000000
     53351      9679  TIP3      OH2           -12.6672035543       38.9633396525      -42.2929345516  TIP3      9479            0.0000000000
     53352      9679  TIP3      H1            -13.5804827483       39.2451362112      -42.0915263760  TIP3      9479            0.0000000000
     53353      9679  TIP3      H2            -12.1746093720       39.3727600732      -41.5496907979  TIP3      9479            0.0000000000
     53354      9680  TIP3      OH2            -8.2986219182       38.6435749965      -39.1124491999  TIP3      9480            0.0000000000
     53355      9680  TIP3      H1             -8.9955497605       38.7742236633      -38.4249044112  TIP3      9480            0.0000000000
     53356      9680  TIP3      H2             -8.8439125655       38.4999533926      -39.8940801449  TIP3      9480            0.0000000000
     53357      9681  TIP3      OH2           -16.4685219257       38.3776044854      -44.0277863966  TIP3      9481            0.0000000000
     53358      9681  TIP3      H1            -16.7652515801       37.4439729861      -44.0668841143  TIP3      9481            0.0000000000
     53359      9681  TIP3      H2            -15.6513620656       38.3469720442      -44.5390809403  TIP3      9481            0.0000000000
     53360      9682  TIP3      OH2            -8.4417229050      -40.0790171647      -47.9100077597  TIP3      9482            0.0000000000
     53361      9682  TIP3      H1             -9.3163809390      -40.0359377297      -48.3384233407  TIP3      9482            0.0000000000
     53362      9682  TIP3      H2             -8.0818003103      -39.1930724877      -47.9910008098  TIP3      9482            0.0000000000
     53363      9683  TIP3      OH2           -18.4893976572       39.2939688021      -35.7411700264  TIP3      9483            0.0000000000
     53364      9683  TIP3      H1            -19.3895182863       39.6299567784      -35.7841462271  TIP3      9483            0.0000000000
     53365      9683  TIP3      H2            -18.5874455796       38.4465746275      -35.2833686563  TIP3      9483            0.0000000000
     53366      9684  TIP3      OH2            -9.6857656285       38.8933689836      -36.8974222579  TIP3      9484            0.0000000000
     53367      9684  TIP3      H1             -9.1132847972       39.1348964929      -36.1642585954  TIP3      9484            0.0000000000
     53368      9684  TIP3      H2            -10.1433724773       38.1097260768      -36.5533720037  TIP3      9484            0.0000000000
     53369      9685  TIP3      OH2            -9.0868868975       38.6767605695      -45.6512062887  TIP3      9485            0.0000000000
     53370      9685  TIP3      H1             -8.7686706041       39.0860609560      -46.4880924447  TIP3      9485            0.0000000000
     53371      9685  TIP3      H2             -8.4939397284       39.0876974894      -44.9864112088  TIP3      9485            0.0000000000
     53372      9686  TIP3      OH2           -10.9163993188       37.4876769775      -43.9555862950  TIP3      9486            0.0000000000
     53373      9686  TIP3      H1            -11.2627147811       38.1573860749      -43.3305026710  TIP3      9486            0.0000000000
     53374      9686  TIP3      H2            -10.2469418658       38.0233380728      -44.4419308120  TIP3      9486            0.0000000000
     53375      9687  TIP3      OH2           -15.2708860368       38.5682038537      -47.1818430862  TIP3      9487            0.0000000000
     53376      9687  TIP3      H1            -15.3216780374       39.4749118894      -46.8532393348  TIP3      9487            0.0000000000
     53377      9687  TIP3      H2            -14.3564890962       38.2886049756      -46.9738304312  TIP3      9487            0.0000000000
     53378      9688  TIP3      OH2            -5.3855328059       38.9286857472      -34.8870202536  TIP3      9488            0.0000000000
     53379      9688  TIP3      H1             -6.0888297802       39.5848258700      -34.9196914315  TIP3      9488            0.0000000000
     53380      9688  TIP3      H2             -4.8541630444       39.1910250082      -35.6417708095  TIP3      9488            0.0000000000
     53381      9689  TIP3      OH2           -17.8706635319       36.4626464006      -40.3428283227  TIP3      9489            0.0000000000
     53382      9689  TIP3      H1            -18.0604123444       36.4934099605      -41.3067083210  TIP3      9489            0.0000000000
     53383      9689  TIP3      H2            -18.2921823059       35.6125209877      -40.0993297435  TIP3      9489            0.0000000000
     53384      9690  TIP3      OH2           -14.2319514149       38.4688855788      -36.8015496570  TIP3      9490            0.0000000000
     53385      9690  TIP3      H1            -13.6799537426       39.1076766579      -37.2912545150  TIP3      9490            0.0000000000
     53386      9690  TIP3      H2            -15.1642557934       38.6289135200      -37.0705213066  TIP3      9490            0.0000000000
     53387      9691  TIP3      OH2           -13.3933455374       36.1476994380      -36.1473039775  TIP3      9491            0.0000000000
     53388      9691  TIP3      H1            -13.5716635892       37.1104215674      -36.2922605637  TIP3      9491            0.0000000000
     53389      9691  TIP3      H2            -14.1375606695       35.8001741042      -36.6697296877  TIP3      9491            0.0000000000
     53390      9692  TIP3      OH2            -9.5096574646       39.4646228404      -33.7331295102  TIP3      9492            0.0000000000
     53391      9692  TIP3      H1            -10.3575380432       39.7313358341      -33.3789838992  TIP3      9492            0.0000000000
     53392      9692  TIP3      H2             -9.1193117909       39.1323984214      -32.9108745595  TIP3      9492            0.0000000000
     53393      9693  TIP3      OH2            -7.6661881162       37.9625636254      -31.3547741701  TIP3      9493            0.0000000000
     53394      9693  TIP3      H1             -7.9631122710       37.0437495564      -31.4881463855  TIP3      9493            0.0000000000
     53395      9693  TIP3      H2             -8.1486289778       38.3165594080      -30.5943763221  TIP3      9493            0.0000000000
     53396      9694  TIP3      OH2           -18.2039810180       39.2747889523      -32.3311755453  TIP3      9494            0.0000000000
     53397      9694  TIP3      H1            -17.8437607550       38.6586711588      -33.0018407366  TIP3      9494            0.0000000000
     53398      9694  TIP3      H2            -18.1385913049       38.8420846348      -31.4585282996  TIP3      9494            0.0000000000
     53399      9695  TIP3      OH2           -13.1599262374       35.6273018208      -33.4916576823  TIP3      9495            0.0000000000
     53400      9695  TIP3      H1            -12.5155794494       34.8871523945      -33.4925195131  TIP3      9495            0.0000000000
     53401      9695  TIP3      H2            -13.2990640694       35.7088030182      -34.4581432700  TIP3      9495            0.0000000000
     53402      9696  TIP3      OH2           -12.7861835324       37.1483973026      -31.3592378141  TIP3      9496            0.0000000000
     53403      9696  TIP3      H1            -12.9927315726       36.6701782651      -32.2011756877  TIP3      9496            0.0000000000
     53404      9696  TIP3      H2            -13.3843446053       37.9276447982      -31.4441730553  TIP3      9496            0.0000000000
     53405      9697  TIP3      OH2            -5.0322221167       39.0526256847      -50.0350672401  TIP3      9497            0.0000000000
     53406      9697  TIP3      H1             -4.4848478425       38.8056245131      -49.2692724584  TIP3      9497            0.0000000000
     53407      9697  TIP3      H2             -5.9204670355       38.8109614744      -49.7492191577  TIP3      9497            0.0000000000
     53408      9698  TIP3      OH2            -2.5199888163       36.0632063240      -31.4712652958  TIP3      9498            0.0000000000
     53409      9698  TIP3      H1             -2.1438369924       35.4115499308      -32.0868988686  TIP3      9498            0.0000000000
     53410      9698  TIP3      H2             -2.3989292028       36.8967069529      -31.9631648790  TIP3      9498            0.0000000000
     53411      9699  TIP3      OH2            -4.8057649988       38.0094070242      -44.9318659770  TIP3      9499            0.0000000000
     53412      9699  TIP3      H1             -4.5984488056       37.5786427698      -44.0818403667  TIP3      9499            0.0000000000
     53413      9699  TIP3      H2             -5.4380319407       37.4037101115      -45.3636952537  TIP3      9499            0.0000000000
     53414      9700  TIP3      OH2           -19.3138218928       38.7701376065      -40.4368350508  TIP3      9500            0.0000000000
     53415      9700  TIP3      H1            -18.8393620724       37.9719460587      -40.1205984447  TIP3      9500            0.0000000000
     53416      9700  TIP3      H2            -19.0733980634       39.4621799715      -39.8256739139  TIP3      9500            0.0000000000
     53417      9701  TIP3      OH2            -2.9622443550       38.2490994945      -33.1285941791  TIP3      9501            0.0000000000
     53418      9701  TIP3      H1             -3.9066170332       38.4888916071      -33.1193982481  TIP3      9501            0.0000000000
     53419      9701  TIP3      H2             -2.9416857507       37.6233502256      -33.8675024324  TIP3      9501            0.0000000000
     53420      9702  TIP3      OH2            -2.9217736757       38.0341757291      -48.3886381944  TIP3      9502            0.0000000000
     53421      9702  TIP3      H1             -2.4874742250       37.3995858523      -48.9577484432  TIP3      9502            0.0000000000
     53422      9702  TIP3      H2             -2.3161066747       38.7960180353      -48.3924945927  TIP3      9502            0.0000000000
     53423      9703  TIP3      OH2           -20.6413706699       38.1714497464      -45.2606484883  TIP3      9503            0.0000000000
     53424      9703  TIP3      H1            -21.5959930332       38.2983808380      -45.4137395435  TIP3      9503            0.0000000000
     53425      9703  TIP3      H2            -20.2710191326       38.6595925250      -45.9998561248  TIP3      9503            0.0000000000
     53426      9704  TIP3      OH2           -20.7032423956       36.8439360342      -36.9828417493  TIP3      9504            0.0000000000
     53427      9704  TIP3      H1            -21.3737353975       36.5634404200      -36.3275348814  TIP3      9504            0.0000000000
     53428      9704  TIP3      H2            -21.2079657038       37.4527321539      -37.5565679601  TIP3      9504            0.0000000000
     53429      9705  TIP3      OH2            -3.9533795293       36.2853476186      -35.2418432507  TIP3      9505            0.0000000000
     53430      9705  TIP3      H1             -4.7981894988       36.5550742297      -35.6492715902  TIP3      9505            0.0000000000
     53431      9705  TIP3      H2             -3.7930821866       35.4475542868      -35.7317336726  TIP3      9505            0.0000000000
     53432      9706  TIP3      OH2           -10.5153703999       37.7005889779      -40.8987856676  TIP3      9506            0.0000000000
     53433      9706  TIP3      H1            -11.2439997271       37.0939968130      -40.6902684285  TIP3      9506            0.0000000000
     53434      9706  TIP3      H2            -10.0152776519       37.1565380310      -41.5226327068  TIP3      9506            0.0000000000
     53435      9707  TIP3      OH2            -5.4387440793       35.7994711642      -40.8459776263  TIP3      9507            0.0000000000
     53436      9707  TIP3      H1             -4.8152529002       36.3590481063      -41.3744943869  TIP3      9507            0.0000000000
     53437      9707  TIP3      H2             -6.3119404816       36.1482145303      -41.1139723397  TIP3      9507            0.0000000000
     53438      9708  TIP3      OH2            -3.7525150193       36.9705298214      -42.5617036043  TIP3      9508            0.0000000000
     53439      9708  TIP3      H1             -3.0656660547       36.4368193065      -43.0221253153  TIP3      9508            0.0000000000
     53440      9708  TIP3      H2             -3.2730034268       37.8268109244      -42.4789866379  TIP3      9508            0.0000000000
     53441      9709  TIP3      OH2           -18.1871609433       36.3538060155      -43.1084375335  TIP3      9509            0.0000000000
     53442      9709  TIP3      H1            -18.9891418815       36.1471257860      -43.6193866931  TIP3      9509            0.0000000000
     53443      9709  TIP3      H2            -17.7367282811       35.4835425687      -43.1458005654  TIP3      9509            0.0000000000
     53444      9710  TIP3      OH2           -19.4077835769       36.0950094158      -47.3912177651  TIP3      9510            0.0000000000
     53445      9710  TIP3      H1            -18.9116184319       36.7811587614      -47.8773959600  TIP3      9510            0.0000000000
     53446      9710  TIP3      H2            -19.9757478722       36.6300699325      -46.8012648606  TIP3      9510            0.0000000000
     53447      9711  TIP3      OH2           -13.7166468768       36.2511053013      -43.3172322866  TIP3      9511            0.0000000000
     53448      9711  TIP3      H1            -12.8149079636       36.6163297914      -43.3688741201  TIP3      9511            0.0000000000
     53449      9711  TIP3      H2            -13.7711009697       36.0654558148      -42.3793705610  TIP3      9511            0.0000000000
     53450      9712  TIP3      OH2            -8.0620656257       36.3163545478      -41.6811280602  TIP3      9512            0.0000000000
     53451      9712  TIP3      H1             -8.0487356576       36.3827503597      -42.6440745942  TIP3      9512            0.0000000000
     53452      9712  TIP3      H2             -8.4281056709       35.4135498846      -41.5292566300  TIP3      9512            0.0000000000
     53453      9713  TIP3      OH2            -6.7413352039       36.3625460827      -45.9548671129  TIP3      9513            0.0000000000
     53454      9713  TIP3      H1             -7.4952181797       36.9043886734      -46.2035008537  TIP3      9513            0.0000000000
     53455      9713  TIP3      H2             -7.1623419546       35.4874217333      -45.7874904110  TIP3      9513            0.0000000000
     53456      9714  TIP3      OH2           -17.6055557051       38.0571633120      -48.8713159906  TIP3      9514            0.0000000000
     53457      9714  TIP3      H1            -17.1145464130       37.3678680678      -49.3455745455  TIP3      9514            0.0000000000
     53458      9714  TIP3      H2            -16.9345280027       38.3026764665      -48.2109522699  TIP3      9514            0.0000000000
     53459      9715  TIP3      OH2           -12.5137208123       38.3299898692      -46.3976062043  TIP3      9515            0.0000000000
     53460      9715  TIP3      H1            -12.3157319059       37.6885695442      -45.6952987203  TIP3      9515            0.0000000000
     53461      9715  TIP3      H2            -12.5686471507       39.1685911670      -45.9223284568  TIP3      9515            0.0000000000
     53462      9716  TIP3      OH2           -18.3253194777       36.8799732269      -33.6467902811  TIP3      9516            0.0000000000
     53463      9716  TIP3      H1            -18.7047713680       36.0959174131      -33.2221513797  TIP3      9516            0.0000000000
     53464      9716  TIP3      H2            -17.4162264847       36.8464201516      -33.2715038122  TIP3      9516            0.0000000000
     53465      9717  TIP3      OH2           -16.2852760009       36.2684008389      -31.9876508680  TIP3      9517            0.0000000000
     53466      9717  TIP3      H1            -15.4146689647       35.8958651600      -32.2274074348  TIP3      9517            0.0000000000
     53467      9717  TIP3      H2            -16.6684185924       35.4721324114      -31.5849417586  TIP3      9517            0.0000000000
     53468      9718  TIP3      OH2            -7.9123517574       35.4560903060      -31.8622951376  TIP3      9518            0.0000000000
     53469      9718  TIP3      H1             -7.7988697203       35.0650423944      -30.9764953424  TIP3      9518            0.0000000000
     53470      9718  TIP3      H2             -6.9834038517       35.5178676438      -32.1768243065  TIP3      9518            0.0000000000
     53471      9719  TIP3      OH2            15.5771863416       38.8468344266      -38.4884183643  TIP3      9519            0.0000000000
     53472      9719  TIP3      H1             15.7863963233       39.4543575818      -37.7742388339  TIP3      9519            0.0000000000
     53473      9719  TIP3      H2             16.1095545577       39.2113533672      -39.2061540769  TIP3      9519            0.0000000000
     53474      9720  TIP3      OH2             3.3294914947       39.6214443910      -41.7461301776  TIP3      9520            0.0000000000
     53475      9720  TIP3      H1              3.3426678492       40.4946168172      -42.1617701222  TIP3      9520            0.0000000000
     53476      9720  TIP3      H2              2.8710345683       39.0844044951      -42.4211708686  TIP3      9520            0.0000000000
     53477      9721  TIP3      OH2            11.1541275344      -40.1563318470      -43.6659409632  TIP3      9521            0.0000000000
     53478      9721  TIP3      H1             11.6490928313      -40.3987949541      -42.8404724599  TIP3      9521            0.0000000000
     53479      9721  TIP3      H2             11.6750254220      -39.4087674157      -43.9859748355  TIP3      9521            0.0000000000
     53480      9722  TIP3      OH2             2.1500519262       38.5712065328      -37.7170143924  TIP3      9522            0.0000000000
     53481      9722  TIP3      H1              1.8957183644       39.1636107806      -38.4263944090  TIP3      9522            0.0000000000
     53482      9722  TIP3      H2              1.5137233894       38.8318692714      -37.0010387689  TIP3      9522            0.0000000000
     53483      9723  TIP3      OH2            12.7216657157       38.6878904423      -41.5542193646  TIP3      9523            0.0000000000
     53484      9723  TIP3      H1             12.4435878783       38.1599267609      -40.7944646861  TIP3      9523            0.0000000000
     53485      9723  TIP3      H2             13.3618711211       39.2526820225      -41.0806598599  TIP3      9523            0.0000000000
     53486      9724  TIP3      OH2            13.1550404374       37.8387967661      -37.6450389700  TIP3      9524            0.0000000000
     53487      9724  TIP3      H1             12.3874857778       38.4049406539      -37.7786170758  TIP3      9524            0.0000000000
     53488      9724  TIP3      H2             13.8360397526       38.2401357838      -38.2204392837  TIP3      9524            0.0000000000
     53489      9725  TIP3      OH2             6.1289210894       35.9252023253      -40.2067654708  TIP3      9525            0.0000000000
     53490      9725  TIP3      H1              5.9682160886       34.9671742295      -40.3008472694  TIP3      9525            0.0000000000
     53491      9725  TIP3      H2              5.2469045703       36.2436479172      -39.9234677965  TIP3      9525            0.0000000000
     53492      9726  TIP3      OH2            14.4738462825       35.8108755532      -47.2715164097  TIP3      9526            0.0000000000
     53493      9726  TIP3      H1             13.5383314235       35.9582485602      -46.9944166739  TIP3      9526            0.0000000000
     53494      9726  TIP3      H2             14.6577936213       36.6882034995      -47.6644222802  TIP3      9526            0.0000000000
     53495      9727  TIP3      OH2             3.4819696413       36.7926887699      -39.4947657320  TIP3      9527            0.0000000000
     53496      9727  TIP3      H1              2.5697476588       36.6728531734      -39.8453716779  TIP3      9527            0.0000000000
     53497      9727  TIP3      H2              3.3605275132       37.6349206200      -39.0236816924  TIP3      9527            0.0000000000
     53498      9728  TIP3      OH2             8.1148802426       36.5023680230      -36.0838764377  TIP3      9528            0.0000000000
     53499      9728  TIP3      H1              8.5223520946       36.0655438691      -35.3135951404  TIP3      9528            0.0000000000
     53500      9728  TIP3      H2              7.1440609513       36.3583241157      -35.9630400068  TIP3      9528            0.0000000000
     53501      9729  TIP3      OH2             7.8472817234       39.0200188897      -48.7506444035  TIP3      9529            0.0000000000
     53502      9729  TIP3      H1              7.4169555463       39.0430748711      -47.8720655326  TIP3      9529            0.0000000000
     53503      9729  TIP3      H2              7.4748471726       38.2017736617      -49.1048541374  TIP3      9529            0.0000000000
     53504      9730  TIP3      OH2             4.7724181697       39.0870989403      -49.7617863652  TIP3      9530            0.0000000000
     53505      9730  TIP3      H1              4.2692328117       39.0461852951      -48.9248648827  TIP3      9530            0.0000000000
     53506      9730  TIP3      H2              4.1369060938       39.7580106465      -50.1226290688  TIP3      9530            0.0000000000
     53507      9731  TIP3      OH2            -2.1043401535       39.1215455541      -42.5566847124  TIP3      9531            0.0000000000
     53508      9731  TIP3      H1             -1.4243183809       39.1184655936      -41.8504366493  TIP3      9531            0.0000000000
     53509      9731  TIP3      H2             -1.6437928631       38.7705695167      -43.3468064083  TIP3      9531            0.0000000000
     53510      9732  TIP3      OH2             6.1945049523       38.9639348249      -42.2932764931  TIP3      9532            0.0000000000
     53511      9732  TIP3      H1              5.2826730844       39.2461832458      -42.0956755001  TIP3      9532            0.0000000000
     53512      9732  TIP3      H2              6.6826239143       39.3732701330      -41.5476576068  TIP3      9532            0.0000000000
     53513      9733  TIP3      OH2            10.5573915496       38.6436383135      -39.1124766457  TIP3      9533            0.0000000000
     53514      9733  TIP3      H1              9.8596291306       38.7740711464      -38.4249361935  TIP3      9533            0.0000000000
     53515      9733  TIP3      H2             10.0121073864       38.4999381438      -39.8941047892  TIP3      9533            0.0000000000
     53516      9734  TIP3      OH2             2.4053172967       38.3665907891      -43.9832911755  TIP3      9534            0.0000000000
     53517      9734  TIP3      H1              2.0887388870       37.4484744174      -44.0878614897  TIP3      9534            0.0000000000
     53518      9734  TIP3      H2              3.1831285085       38.3650487420      -44.5657386574  TIP3      9534            0.0000000000
     53519      9735  TIP3      OH2            10.4392650232      -40.0785206101      -47.9059659695  TIP3      9535            0.0000000000
     53520      9735  TIP3      H1              9.5579272006      -40.0443893098      -48.3305968293  TIP3      9535            0.0000000000
     53521      9735  TIP3      H2             10.7805612561      -39.1865959294      -47.9893072433  TIP3      9535            0.0000000000
     53522      9736  TIP3      OH2             0.3565526482       39.2678224131      -35.7870794353  TIP3      9536            0.0000000000
     53523      9736  TIP3      H1             -0.5195558538       39.6684693490      -35.7630042270  TIP3      9536            0.0000000000
     53524      9736  TIP3      H2              0.2552840202       38.4600467278      -35.2696427672  TIP3      9536            0.0000000000
     53525      9737  TIP3      OH2             9.1702087479       38.8936547322      -36.8972798950  TIP3      9537            0.0000000000
     53526      9737  TIP3      H1              9.7429176422       39.1350701738      -36.1642354419  TIP3      9537            0.0000000000
     53527      9737  TIP3      H2              8.7127646362       38.1097155615      -36.5534187339  TIP3      9537            0.0000000000
     53528      9738  TIP3      OH2             9.7727472496       38.6710895128      -45.6495432771  TIP3      9538            0.0000000000
     53529      9738  TIP3      H1             10.0877954572       39.0855097043      -46.4877193145  TIP3      9538            0.0000000000
     53530      9738  TIP3      H2             10.3621733006       39.0876443789      -44.9863657146  TIP3      9538            0.0000000000
     53531      9739  TIP3      OH2             7.9436713643       37.4847781372      -43.9542304383  TIP3      9539            0.0000000000
     53532      9739  TIP3      H1              7.5922877437       38.1573189277      -43.3314008630  TIP3      9539            0.0000000000
     53533      9739  TIP3      H2              8.6080659792       38.0232373679      -44.4426991629  TIP3      9539            0.0000000000
     53534      9740  TIP3      OH2             3.6344125177       38.4360596654      -46.9425695090  TIP3      9540            0.0000000000
     53535      9740  TIP3      H1              3.4921424696       39.4047052043      -47.0025825991  TIP3      9540            0.0000000000
     53536      9740  TIP3      H2              4.5884850850       38.3085253737      -46.9780771275  TIP3      9540            0.0000000000
     53537      9741  TIP3      OH2            13.4680196967       38.9251789218      -34.8952858884  TIP3      9541            0.0000000000
     53538      9741  TIP3      H1             12.7665659713       39.5856878342      -34.9160792948  TIP3      9541            0.0000000000
     53539      9741  TIP3      H2             14.0003133636       39.2066478910      -35.6409727530  TIP3      9541            0.0000000000
     53540      9742  TIP3      OH2             0.9858085545       36.4646315814      -40.3400769880  TIP3      9542            0.0000000000
     53541      9742  TIP3      H1              0.7959127949       36.4925384428      -41.3052761753  TIP3      9542            0.0000000000
     53542      9742  TIP3      H2              0.5615235496       35.6170343067      -40.0941510613  TIP3      9542            0.0000000000
     53543      9743  TIP3      OH2             4.6270198942       38.4654419280      -36.8059644101  TIP3      9543            0.0000000000
     53544      9743  TIP3      H1              5.1773724412       39.1085157946      -37.2920929571  TIP3      9543            0.0000000000
     53545      9743  TIP3      H2              3.6933465837       38.6284632982      -37.0702222065  TIP3      9543            0.0000000000
     53546      9744  TIP3      OH2             5.4693564669       36.1446233966      -36.1521864913  TIP3      9544            0.0000000000
     53547      9744  TIP3      H1              5.2862719250       37.1076601924      -36.2925587205  TIP3      9544            0.0000000000
     53548      9744  TIP3      H2              4.7207771278       35.7987089723      -36.6692251653  TIP3      9544            0.0000000000
     53549      9745  TIP3      OH2             9.3471246506       39.4658498851      -33.7336367518  TIP3      9545            0.0000000000
     53550      9745  TIP3      H1              8.5024066619       39.7418765945      -33.3818983992  TIP3      9545            0.0000000000
     53551      9745  TIP3      H2              9.7339017765       39.1324686233      -32.9088162240  TIP3      9545            0.0000000000
     53552      9746  TIP3      OH2            11.1982812941       37.9604938390      -31.3409205850  TIP3      9546            0.0000000000
     53553      9746  TIP3      H1             10.8927681797       37.0456508456      -31.4860370840  TIP3      9546            0.0000000000
     53554      9746  TIP3      H2             10.7080926623       38.3167224525      -30.5853002246  TIP3      9546            0.0000000000
     53555      9747  TIP3      OH2             0.6559643934       39.2999838296      -32.3512300692  TIP3      9547            0.0000000000
     53556      9747  TIP3      H1              1.0076744546       38.6792408418      -33.0142619994  TIP3      9547            0.0000000000
     53557      9747  TIP3      H2              0.7095786508       38.8693395536      -31.4770030974  TIP3      9547            0.0000000000
     53558      9748  TIP3      OH2             5.6967719159       35.6280844169      -33.4927890994  TIP3      9548            0.0000000000
     53559      9748  TIP3      H1              6.3400453152       34.8869576977      -33.4922872391  TIP3      9548            0.0000000000
     53560      9748  TIP3      H2              5.5574868235       35.7083159751      -34.4589580097  TIP3      9548            0.0000000000
     53561      9749  TIP3      OH2             6.0711067109       37.1450278674      -31.3592732807  TIP3      9549            0.0000000000
     53562      9749  TIP3      H1              5.8628979440       36.6680106938      -32.2011284265  TIP3      9549            0.0000000000
     53563      9749  TIP3      H2              5.4704837683       37.9204068072      -31.4444531925  TIP3      9549            0.0000000000
     53564      9750  TIP3      OH2            13.8293573426       39.0510573323      -50.0332277339  TIP3      9550            0.0000000000
     53565      9750  TIP3      H1             14.3716201945       38.8053025324      -49.2652469680  TIP3      9550            0.0000000000
     53566      9750  TIP3      H2             12.9367292889       38.8114735989      -49.7511482238  TIP3      9550            0.0000000000
     53567      9751  TIP3      OH2            16.3366242191       36.0629998144      -31.4709247181  TIP3      9551            0.0000000000
     53568      9751  TIP3      H1             16.7119964587       35.4115025950      -32.0869881583  TIP3      9551            0.0000000000
     53569      9751  TIP3      H2             16.4569132819       36.8965928072      -31.9631285665  TIP3      9551            0.0000000000
     53570      9752  TIP3      OH2            14.0531126927       38.0084521866      -44.9308548628  TIP3      9552            0.0000000000
     53571      9752  TIP3      H1             14.2571503273       37.5788660782      -44.0819485251  TIP3      9552            0.0000000000
     53572      9752  TIP3      H2             13.4175156774       37.4037300173      -45.3636885691  TIP3      9552            0.0000000000
     53573      9753  TIP3      OH2            -0.4642425786       38.7697629332      -40.4342134020  TIP3      9553            0.0000000000
     53574      9753  TIP3      H1              0.0153184445       37.9727299460      -40.1214236761  TIP3      9553            0.0000000000
     53575      9753  TIP3      H2             -0.2189580013       39.4610959942      -39.8247565456  TIP3      9553            0.0000000000
     53576      9754  TIP3      OH2            15.8939832292       38.2483269225      -33.1288167489  TIP3      9554            0.0000000000
     53577      9754  TIP3      H1             14.9499539899       38.4888446728      -33.1201334849  TIP3      9554            0.0000000000
     53578      9754  TIP3      H2             15.9143159519       37.6230253224      -33.8680567819  TIP3      9554            0.0000000000
     53579      9755  TIP3      OH2            15.9408050967       38.0249432857      -48.3751991931  TIP3      9555            0.0000000000
     53580      9755  TIP3      H1             16.3532347967       37.3941662395      -48.9655200670  TIP3      9555            0.0000000000
     53581      9755  TIP3      H2             16.5322076035       38.7960652761      -48.3930578162  TIP3      9555            0.0000000000
     53582      9756  TIP3      OH2            -1.7925186598       38.1742167037      -45.2595245814  TIP3      9556            0.0000000000
     53583      9756  TIP3      H1             -2.7455358202       38.3002905714      -45.4202792354  TIP3      9556            0.0000000000
     53584      9756  TIP3      H2             -1.4025516361       38.6547800348      -46.0005290934  TIP3      9556            0.0000000000
     53585      9757  TIP3      OH2            -1.8480138595       36.8427987717      -36.9834185403  TIP3      9557            0.0000000000
     53586      9757  TIP3      H1             -2.5182032936       36.5625333434      -36.3283399153  TIP3      9557            0.0000000000
     53587      9757  TIP3      H2             -2.3513992843       37.4538606804      -37.5564417485  TIP3      9557            0.0000000000
     53588      9758  TIP3      OH2            14.9026483336       36.2851249007      -35.2416346796  TIP3      9558            0.0000000000
     53589      9758  TIP3      H1             14.0580352896       36.5554563753      -35.6492542341  TIP3      9558            0.0000000000
     53590      9758  TIP3      H2             15.0628480773       35.4475378976      -35.7318580481  TIP3      9558            0.0000000000
     53591      9759  TIP3      OH2             8.3402766570       37.7000818735      -40.8981435133  TIP3      9559            0.0000000000
     53592      9759  TIP3      H1              7.6102315436       37.0941442848      -40.6914268513  TIP3      9559            0.0000000000
     53593      9759  TIP3      H2              8.8403937270       37.1566482999      -41.5226550437  TIP3      9559            0.0000000000
     53594      9760  TIP3      OH2            13.4171925461       35.7993560141      -40.8459519108  TIP3      9560            0.0000000000
     53595      9760  TIP3      H1             14.0404637136       36.3591052874      -41.3745303876  TIP3      9560            0.0000000000
     53596      9760  TIP3      H2             12.5438031219       36.1480123464      -41.1134580753  TIP3      9560            0.0000000000
     53597      9761  TIP3      OH2            15.1034256865       36.9706966612      -42.5616292372  TIP3      9561            0.0000000000
     53598      9761  TIP3      H1             15.7898518058       36.4372531069      -43.0229454182  TIP3      9561            0.0000000000
     53599      9761  TIP3      H2             15.5828318896       37.8269444905      -42.4790850772  TIP3      9561            0.0000000000
     53600      9762  TIP3      OH2             0.6565391058       36.3406354213      -43.0797533449  TIP3      9562            0.0000000000
     53601      9762  TIP3      H1             -0.1339052274       36.1462416606      -43.6154309927  TIP3      9562            0.0000000000
     53602      9762  TIP3      H2              1.1203864056       35.4828324069      -43.1423795665  TIP3      9562            0.0000000000
     53603      9763  TIP3      OH2            -0.5777298490       36.0780166642      -47.3928165479  TIP3      9563            0.0000000000
     53604      9763  TIP3      H1             -0.0339696686       36.7541071606      -47.8749476596  TIP3      9563            0.0000000000
     53605      9763  TIP3      H2             -1.1081922648       36.6477172848      -46.8057830255  TIP3      9563            0.0000000000
     53606      9764  TIP3      OH2             5.1414373020       36.2469024830      -43.3175922874  TIP3      9564            0.0000000000
     53607      9764  TIP3      H1              6.0407504827       36.6172482297      -43.3688200785  TIP3      9564            0.0000000000
     53608      9764  TIP3      H2              5.0841069190       36.0664460078      -42.3791600741  TIP3      9564            0.0000000000
     53609      9765  TIP3      OH2            10.7939798131       36.3163075742      -41.6811370115  TIP3      9565            0.0000000000
     53610      9765  TIP3      H1             10.8071862858       36.3828410741      -42.6440774335  TIP3      9565            0.0000000000
     53611      9765  TIP3      H2             10.4278617751       35.4135330053      -41.5292937071  TIP3      9565            0.0000000000
     53612      9766  TIP3      OH2            12.1145739557       36.3624932134      -45.9552234829  TIP3      9566            0.0000000000
     53613      9766  TIP3      H1             11.3608546488       36.9048192331      -46.2034065668  TIP3      9566            0.0000000000
     53614      9766  TIP3      H2             11.6916977166       35.4884135241      -45.7888210176  TIP3      9566            0.0000000000
     53615      9767  TIP3      OH2             1.1195446079       37.7355598615      -48.7894834033  TIP3      9567            0.0000000000
     53616      9767  TIP3      H1              1.7639280620       37.3514665493      -49.3881380141  TIP3      9567            0.0000000000
     53617      9767  TIP3      H2              1.7529149144       38.3438325576      -48.3234845838  TIP3      9567            0.0000000000
     53618      9768  TIP3      OH2             6.3892406183       38.3450364716      -46.4104591761  TIP3      9568            0.0000000000
     53619      9768  TIP3      H1              6.5197284126       37.6909034600      -45.7058804967  TIP3      9568            0.0000000000
     53620      9768  TIP3      H2              6.2802565474       39.1685216650      -45.9165668843  TIP3      9568            0.0000000000
     53621      9769  TIP3      OH2             0.5243605829       36.8790980875      -33.6357215301  TIP3      9569            0.0000000000
     53622      9769  TIP3      H1              0.1504693766       36.0797622946      -33.2199441187  TIP3      9569            0.0000000000
     53623      9769  TIP3      H2              1.4361278071       36.8425946272      -33.2688198671  TIP3      9569            0.0000000000
     53624      9770  TIP3      OH2             2.5649671824       36.2610490786      -31.9877117585  TIP3      9570            0.0000000000
     53625      9770  TIP3      H1              3.4400469561       35.8914404394      -32.2228177419  TIP3      9570            0.0000000000
     53626      9770  TIP3      H2              2.1718006686       35.4630417326      -31.5850426762  TIP3      9570            0.0000000000
     53627      9771  TIP3      OH2            10.9434508198       35.4567451220      -31.8623749710  TIP3      9571            0.0000000000
     53628      9771  TIP3      H1             11.0571014224       35.0651343465      -30.9767713764  TIP3      9571            0.0000000000
     53629      9771  TIP3      H2             11.8725395438       35.5181563669      -32.1766394167  TIP3      9571            0.0000000000
     53630      9772  TIP3      OH2            34.4754487806       38.8148197612      -38.4580714734  TIP3      9572            0.0000000000
     53631      9772  TIP3      H1             34.6363383329       39.4578451688      -37.7646650073  TIP3      9572            0.0000000000
     53632      9772  TIP3      H2             34.9647472424       39.1881171111      -39.2035070619  TIP3      9572            0.0000000000
     53633      9773  TIP3      OH2            22.1970024443       39.6245795689      -41.7558674008  TIP3      9573            0.0000000000
     53634      9773  TIP3      H1             22.1989619826       40.4983719336      -42.1680998739  TIP3      9573            0.0000000000
     53635      9773  TIP3      H2             21.7196127644       39.0820293801      -42.4085512785  TIP3      9573            0.0000000000
     53636      9774  TIP3      OH2            30.0085355638      -40.1569074236      -43.6669566543  TIP3      9574            0.0000000000
     53637      9774  TIP3      H1             30.5039704422      -40.4001373867      -42.8419705523  TIP3      9574            0.0000000000
     53638      9774  TIP3      H2             30.5295832429      -39.4091824134      -43.9827507317  TIP3      9574            0.0000000000
     53639      9775  TIP3      OH2            20.9989043143       38.5645152628      -37.7225392391  TIP3      9575            0.0000000000
     53640      9775  TIP3      H1             20.7510594809       39.1649170270      -38.4269749253  TIP3      9575            0.0000000000
     53641      9775  TIP3      H2             20.3695220466       38.8316182136      -37.0018888502  TIP3      9575            0.0000000000
     53642      9776  TIP3      OH2            31.5761575542       38.6975673185      -41.5510481948  TIP3      9576            0.0000000000
     53643      9776  TIP3      H1             31.2979761431       38.1641597758      -40.7936404844  TIP3      9576            0.0000000000
     53644      9776  TIP3      H2             32.2182306238       39.2584701301      -41.0804230435  TIP3      9576            0.0000000000
     53645      9777  TIP3      OH2            31.9983263755       37.8388858518      -37.6316428552  TIP3      9577            0.0000000000
     53646      9777  TIP3      H1             31.2350476707       38.4075953248      -37.7769012774  TIP3      9577            0.0000000000
     53647      9777  TIP3      H2             32.6801565127       38.2304623967      -38.2117638590  TIP3      9577            0.0000000000
     53648      9778  TIP3      OH2            24.9864292292       35.9279823777      -40.2090904017  TIP3      9578            0.0000000000
     53649      9778  TIP3      H1             24.8257592926       34.9671316163      -40.3005593694  TIP3      9578            0.0000000000
     53650      9778  TIP3      H2             24.1023219751       36.2426081433      -39.9224664703  TIP3      9578            0.0000000000
     53651      9779  TIP3      OH2            33.3423725796       35.7889766608      -47.2805447251  TIP3      9579            0.0000000000
     53652      9779  TIP3      H1             32.4087779617       35.9448126243      -46.9969228322  TIP3      9579            0.0000000000
     53653      9779  TIP3      H2             33.5219458496       36.6765829936      -47.6560659844  TIP3      9579            0.0000000000
     53654      9780  TIP3      OH2            22.3380406831       36.7930008583      -39.4954552738  TIP3      9580            0.0000000000
     53655      9780  TIP3      H1             21.4254742415       36.6724387468      -39.8445992861  TIP3      9580            0.0000000000
     53656      9780  TIP3      H2             22.2164285277       37.6346338483      -39.0231780219  TIP3      9580            0.0000000000
     53657      9781  TIP3      OH2            26.9708745329       36.5021823740      -36.0838835692  TIP3      9581            0.0000000000
     53658      9781  TIP3      H1             27.3785302586       36.0659540190      -35.3133611761  TIP3      9581            0.0000000000
     53659      9781  TIP3      H2             26.0000037671       36.3583359246      -35.9629592257  TIP3      9581            0.0000000000
     53660      9782  TIP3      OH2            26.6302688773       39.0680962664      -48.7522313857  TIP3      9582            0.0000000000
     53661      9782  TIP3      H1             26.2963461883       39.0084903761      -47.8387290513  TIP3      9582            0.0000000000
     53662      9782  TIP3      H2             26.3470838118       38.2126556541      -49.1023598191  TIP3      9582            0.0000000000
     53663      9783  TIP3      OH2            23.4671222965       39.2486250009      -49.6244472151  TIP3      9583            0.0000000000
     53664      9783  TIP3      H1             22.9743070226       38.9799869990      -48.8321233127  TIP3      9583            0.0000000000
     53665      9783  TIP3      H2             22.8423881621       39.8374394457      -50.1208240867  TIP3      9583            0.0000000000
     53666      9784  TIP3      OH2            16.7522687753       39.1215376296      -42.5569156679  TIP3      9584            0.0000000000
     53667      9784  TIP3      H1             17.4316845010       39.1182282374      -41.8503191529  TIP3      9584            0.0000000000
     53668      9784  TIP3      H2             17.2127181835       38.7701581264      -43.3471388388  TIP3      9584            0.0000000000
     53669      9785  TIP3      OH2            25.0447247529       38.9689641317      -42.2951062802  TIP3      9585            0.0000000000
     53670      9785  TIP3      H1             24.1310101123       39.2423048140      -42.0830724001  TIP3      9585            0.0000000000
     53671      9785  TIP3      H2             25.5373686483       39.3668209788      -41.5456034633  TIP3      9585            0.0000000000
     53672      9786  TIP3      OH2            29.4115944213       38.6443866467      -39.1123144416  TIP3      9586            0.0000000000
     53673      9786  TIP3      H1             28.7120481746       38.7728817544      -38.4258285941  TIP3      9586            0.0000000000
     53674      9786  TIP3      H2             28.8672837864       38.5003562188      -39.8943518326  TIP3      9586            0.0000000000
     53675      9787  TIP3      OH2            21.2462991319       38.3734743855      -44.0272401464  TIP3      9587            0.0000000000
     53676      9787  TIP3      H1             20.9453270486       37.4432402992      -44.0664062904  TIP3      9587            0.0000000000
     53677      9787  TIP3      H2             22.0626032244       38.3397084374      -44.5347102606  TIP3      9587            0.0000000000
     53678      9788  TIP3      OH2            29.2658069987      -40.0785220445      -47.9090758715  TIP3      9588            0.0000000000
     53679      9788  TIP3      H1             28.3938985651      -40.0333154067      -48.3378930951  TIP3      9588            0.0000000000
     53680      9788  TIP3      H2             29.6268460013      -39.1925196289      -47.9913643258  TIP3      9588            0.0000000000
     53681      9789  TIP3      OH2            19.2126479419       39.2679273704      -35.7870003321  TIP3      9589            0.0000000000
     53682      9789  TIP3      H1             18.3364910445       39.6686060629      -35.7630879232  TIP3      9589            0.0000000000
     53683      9789  TIP3      H2             19.1112175190       38.4600610741      -35.2696954820  TIP3      9589            0.0000000000
     53684      9790  TIP3      OH2            28.0261564961       38.8932260053      -36.8975606778  TIP3      9590            0.0000000000
     53685      9790  TIP3      H1             28.5985351230       39.1346259704      -36.1642703196  TIP3      9590            0.0000000000
     53686      9790  TIP3      H2             27.5679995230       38.1099014203      -36.5535067381  TIP3      9590            0.0000000000
     53687      9791  TIP3      OH2            28.6118319269       38.6877565616      -45.6550759164  TIP3      9591            0.0000000000
     53688      9791  TIP3      H1             28.9417736708       39.0907659058      -46.4914036379  TIP3      9591            0.0000000000
     53689      9791  TIP3      H2             29.2150189974       39.0804268125      -44.9908562804  TIP3      9591            0.0000000000
     53690      9792  TIP3      OH2            26.8008900777       37.4824531728      -43.9552373091  TIP3      9592            0.0000000000
     53691      9792  TIP3      H1             26.4502524359       38.1521188249      -43.3296767745  TIP3      9592            0.0000000000
     53692      9792  TIP3      H2             27.4649692388       38.0213627989      -44.4415016196  TIP3      9592            0.0000000000
     53693      9793  TIP3      OH2            22.4523267332       38.5789076996      -47.2000939920  TIP3      9593            0.0000000000
     53694      9793  TIP3      H1             22.3834908392       39.4608406580      -46.8253095317  TIP3      9593            0.0000000000
     53695      9793  TIP3      H2             23.3547759702       38.2738066755      -46.9681962930  TIP3      9593            0.0000000000
     53696      9794  TIP3      OH2            32.3180259796       38.9262335755      -34.8909483338  TIP3      9594            0.0000000000
     53697      9794  TIP3      H1             31.6204112734       39.5865139178      -34.9208745633  TIP3      9594            0.0000000000
     53698      9794  TIP3      H2             32.8566368250       39.1897979925      -35.6401885125  TIP3      9594            0.0000000000
     53699      9795  TIP3      OH2            19.8422587642       36.4638754785      -40.3427186406  TIP3      9595            0.0000000000
     53700      9795  TIP3      H1             19.6514096162       36.4922713123      -41.3064682727  TIP3      9595            0.0000000000
     53701      9795  TIP3      H2             19.4174547018       35.6171755158      -40.0941999463  TIP3      9595            0.0000000000
     53702      9796  TIP3      OH2            23.4819726646       38.4657019715      -36.8062910691  TIP3      9596            0.0000000000
     53703      9796  TIP3      H1             24.0333707323       39.1084207974      -37.2918247623  TIP3      9596            0.0000000000
     53704      9796  TIP3      H2             22.5495560055       38.6293587445      -37.0728223035  TIP3      9596            0.0000000000
     53705      9797  TIP3      OH2            24.3253701664       36.1447153539      -36.1522577592  TIP3      9597            0.0000000000
     53706      9797  TIP3      H1             24.1422343114       37.1077273190      -36.2924930937  TIP3      9597            0.0000000000
     53707      9797  TIP3      H2             23.5767378565       35.7987354826      -36.6692015969  TIP3      9597            0.0000000000
     53708      9798  TIP3      OH2            28.2018061049       39.4672744470      -33.7347223596  TIP3      9598            0.0000000000
     53709      9798  TIP3      H1             27.3543858590       39.7310110159      -33.3783446010  TIP3      9598            0.0000000000
     53710      9798  TIP3      H2             28.5934835629       39.1288901934      -32.9143791688  TIP3      9598            0.0000000000
     53711      9799  TIP3      OH2            30.0538597467       37.9619655345      -31.3490089230  TIP3      9599            0.0000000000
     53712      9799  TIP3      H1             29.7496534069       37.0459800922      -31.4881753311  TIP3      9599            0.0000000000
     53713      9799  TIP3      H2             29.5627050173       38.3171721768      -30.5947374504  TIP3      9599            0.0000000000
     53714      9800  TIP3      OH2            19.5133470639       39.3005263878      -32.3511204805  TIP3      9600            0.0000000000
     53715      9800  TIP3      H1             19.8628029154       38.6795099220      -33.0152383761  TIP3      9600            0.0000000000
     53716      9800  TIP3      H2             19.5657818732       38.8693041293      -31.4771296509  TIP3      9600            0.0000000000
     53717      9801  TIP3      OH2            24.5528054071       35.6281419546      -33.4926484290  TIP3      9601            0.0000000000
     53718      9801  TIP3      H1             25.1960364294       34.8869664493      -33.4923281207  TIP3      9601            0.0000000000
     53719      9801  TIP3      H2             24.4134578815       35.7083811155      -34.4588579370  TIP3      9601            0.0000000000
     53720      9802  TIP3      OH2            24.9289751510       37.1464006796      -31.3601349084  TIP3      9602            0.0000000000
     53721      9802  TIP3      H1             24.7192369975       36.6682107143      -32.2009046184  TIP3      9602            0.0000000000
     53722      9802  TIP3      H2             24.3265423004       37.9203785457      -31.4442409891  TIP3      9602            0.0000000000
     53723      9803  TIP3      OH2            32.6832679411       39.0504211521      -50.0328726944  TIP3      9603            0.0000000000
     53724      9803  TIP3      H1             33.2237201200       38.8052652899      -49.2636535935  TIP3      9603            0.0000000000
     53725      9803  TIP3      H2             31.7870804085       38.8255268808      -49.7532523591  TIP3      9603            0.0000000000
     53726      9804  TIP3      OH2            35.2262658245       36.0575286931      -31.4614568282  TIP3      9604            0.0000000000
     53727      9804  TIP3      H1             35.5886592764       35.4031773264      -32.0858827548  TIP3      9604            0.0000000000
     53728      9804  TIP3      H2             35.3221704193       36.8913841935      -31.9616630260  TIP3      9604            0.0000000000
     53729      9805  TIP3      OH2            32.8898935244       38.0155693343      -44.9308020621  TIP3      9605            0.0000000000
     53730      9805  TIP3      H1             33.1105503174       37.5813613470      -44.0867460495  TIP3      9605            0.0000000000
     53731      9805  TIP3      H2             32.2650014225       37.4035878869      -45.3653669257  TIP3      9605            0.0000000000
     53732      9806  TIP3      OH2            18.3997685086       38.7708684600      -40.4381688801  TIP3      9606            0.0000000000
     53733      9806  TIP3      H1             18.8718799140       37.9720725908      -40.1200273655  TIP3      9606            0.0000000000
     53734      9806  TIP3      H2             18.6366589583       39.4608975494      -39.8237235744  TIP3      9606            0.0000000000
     53735      9807  TIP3      OH2            34.7483698577       38.2259403605      -33.1113640428  TIP3      9607            0.0000000000
     53736      9807  TIP3      H1             33.8082521630       38.4877789365      -33.1118537411  TIP3      9607            0.0000000000
     53737      9807  TIP3      H2             34.7643110679       37.6281621160      -33.8726957006  TIP3      9607            0.0000000000
     53738      9808  TIP3      OH2            34.8196281759       38.0090514345      -48.3500029923  TIP3      9608            0.0000000000
     53739      9808  TIP3      H1             35.2133305336       37.3985690150      -48.9794218050  TIP3      9608            0.0000000000
     53740      9808  TIP3      H2             35.3885692829       38.7967731756      -48.3997122446  TIP3      9608            0.0000000000
     53741      9809  TIP3      OH2            17.0700857697       38.1706165389      -45.2627213531  TIP3      9609            0.0000000000
     53742      9809  TIP3      H1             16.1157764098       38.2974882405      -45.4136504799  TIP3      9609            0.0000000000
     53743      9809  TIP3      H2             17.4405025514       38.6597422190      -46.0003849769  TIP3      9609            0.0000000000
     53744      9810  TIP3      OH2            17.0079786894       36.8427787923      -36.9833163770  TIP3      9610            0.0000000000
     53745      9810  TIP3      H1             16.3377664950       36.5624907823      -36.3282601707  TIP3      9610            0.0000000000
     53746      9810  TIP3      H2             16.5043311206       37.4537041873      -37.5562375215  TIP3      9610            0.0000000000
     53747      9811  TIP3      OH2            33.7703008929       36.2910344208      -35.2488421252  TIP3      9611            0.0000000000
     53748      9811  TIP3      H1             32.9185997794       36.5550401835      -35.6463478566  TIP3      9611            0.0000000000
     53749      9811  TIP3      H2             33.9156348260       35.4446661854      -35.7258851635  TIP3      9611            0.0000000000
     53750      9812  TIP3      OH2            27.1969461647       37.6989630778      -40.8989177471  TIP3      9612            0.0000000000
     53751      9812  TIP3      H1             26.4711390961       37.0908059508      -40.6812668664  TIP3      9612            0.0000000000
     53752      9812  TIP3      H2             27.6937129032       37.1547408546      -41.5245779052  TIP3      9612            0.0000000000
     53753      9813  TIP3      OH2            32.2755722832       35.7966662122      -40.8422804823  TIP3      9613            0.0000000000
     53754      9813  TIP3      H1             32.8977295957       36.3588555946      -41.3742457804  TIP3      9613            0.0000000000
     53755      9813  TIP3      H2             31.3993667216       36.1429909013      -41.1150503647  TIP3      9613            0.0000000000
     53756      9814  TIP3      OH2            33.9557390396       36.9703974071      -42.5588861335  TIP3      9614            0.0000000000
     53757      9814  TIP3      H1             34.6365348241       36.4321848949      -43.0182382383  TIP3      9614            0.0000000000
     53758      9814  TIP3      H2             34.4368898184       37.8234615166      -42.4695457940  TIP3      9614            0.0000000000
     53759      9815  TIP3      OH2            19.5236148195       36.3540807424      -43.1089730527  TIP3      9615            0.0000000000
     53760      9815  TIP3      H1             18.7219317074       36.1466508732      -43.6204737998  TIP3      9615            0.0000000000
     53761      9815  TIP3      H2             19.9746381402       35.4842326115      -43.1457489947  TIP3      9615            0.0000000000
     53762      9816  TIP3      OH2            18.3045496017       36.0947716222      -47.3907962600  TIP3      9616            0.0000000000
     53763      9816  TIP3      H1             18.7997317278       36.7811562674      -47.8771572014  TIP3      9616            0.0000000000
     53764      9816  TIP3      H2             17.7354419205       36.6297714101      -46.8016140972  TIP3      9616            0.0000000000
     53765      9817  TIP3      OH2            23.9949634460       36.2516469032      -43.3171603155  TIP3      9617            0.0000000000
     53766      9817  TIP3      H1             24.8970774093       36.6156801958      -43.3691257053  TIP3      9617            0.0000000000
     53767      9817  TIP3      H2             23.9409587208       36.0651355721      -42.3794272573  TIP3      9617            0.0000000000
     53768      9818  TIP3      OH2            29.6740265792       36.3064052782      -41.6919711718  TIP3      9618            0.0000000000
     53769      9818  TIP3      H1             29.6628944117       36.3784248366      -42.6549939347  TIP3      9618            0.0000000000
     53770      9818  TIP3      H2             29.2867947513       35.4136109497      -41.5325830898  TIP3      9618            0.0000000000
     53771      9819  TIP3      OH2            30.9722685986       36.3600399005      -45.9577721561  TIP3      9619            0.0000000000
     53772      9819  TIP3      H1             30.2191072838       36.9043150645      -46.2034043016  TIP3      9619            0.0000000000
     53773      9819  TIP3      H2             30.5463584678       35.4881524256      -45.7875873908  TIP3      9619            0.0000000000
     53774      9820  TIP3      OH2            20.1119107024       38.0675725568      -48.8725721209  TIP3      9620            0.0000000000
     53775      9820  TIP3      H1             20.5964386963       37.3700680987      -49.3445921840  TIP3      9620            0.0000000000
     53776      9820  TIP3      H2             20.7796437773       38.3051035632      -48.2093697381  TIP3      9620            0.0000000000
     53777      9821  TIP3      OH2            25.1924037867       38.3480208315      -46.4018569231  TIP3      9621            0.0000000000
     53778      9821  TIP3      H1             25.3940457069       37.6922113336      -45.7123731989  TIP3      9621            0.0000000000
     53779      9821  TIP3      H2             25.1497601564       39.1689082979      -45.9043381299  TIP3      9621            0.0000000000
     53780      9822  TIP3      OH2            19.3803246068       36.8792225147      -33.6355628113  TIP3      9622            0.0000000000
     53781      9822  TIP3      H1             19.0065418611       36.0796519157      -33.2200406197  TIP3      9622            0.0000000000
     53782      9822  TIP3      H2             20.2921699061       36.8425095530      -33.2688837941  TIP3      9622            0.0000000000
     53783      9823  TIP3      OH2            21.4212434394       36.2614070964      -31.9872603191  TIP3      9623            0.0000000000
     53784      9823  TIP3      H1             22.2993839674       35.8945746216      -32.2158855599  TIP3      9623            0.0000000000
     53785      9823  TIP3      H2             21.0280823758       35.4628961693      -31.5852347090  TIP3      9623            0.0000000000
     53786      9824  TIP3      OH2            29.7959203050       35.4582327248      -31.8638377910  TIP3      9624            0.0000000000
     53787      9824  TIP3      H1             29.9138074837       35.0651327982      -30.9787089541  TIP3      9624            0.0000000000
     53788      9824  TIP3      H2             30.7222409305       35.5292033695      -32.1823859535  TIP3      9624            0.0000000000
     53789      9825  TIP3      OH2            35.6132389784       39.1578060251      -42.5781299385  TIP3      9625            0.0000000000
     53790      9825  TIP3      H1             36.2892214203       39.0904813793      -41.8648202989  TIP3      9625            0.0000000000
     53791      9825  TIP3      H2             36.0742077039       38.7808011027      -43.3517399948  TIP3      9625            0.0000000000
     53792      9826  TIP3      OH2            38.1022717059       39.3168338982      -35.7241659012  TIP3      9626            0.0000000000
     53793      9826  TIP3      H1             37.2063950570       39.6644806341      -35.8181921694  TIP3      9626            0.0000000000
     53794      9826  TIP3      H2             37.9832761513       38.4745167082      -35.2691058240  TIP3      9626            0.0000000000
     53795      9827  TIP3      OH2            38.6650775982       36.4908456690      -40.3275736919  TIP3      9627            0.0000000000
     53796      9827  TIP3      H1             38.4802944736       36.5260451589      -41.2926024725  TIP3      9627            0.0000000000
     53797      9827  TIP3      H2             38.2844400349       35.6433502976      -40.0581786941  TIP3      9627            0.0000000000
     53798      9828  TIP3      OH2            38.7372639686       39.4061597707      -32.2820097335  TIP3      9628            0.0000000000
     53799      9828  TIP3      H1             38.7190709769       38.7427833828      -32.9992670195  TIP3      9628            0.0000000000
     53800      9828  TIP3      H2             38.4576384871       38.9135516711      -31.4880659167  TIP3      9628            0.0000000000
     53801      9829  TIP3      OH2            37.1901615677       38.7897180830      -40.4013595802  TIP3      9629            0.0000000000
     53802      9829  TIP3      H1             37.7210344247       37.9861351547      -40.1916947411  TIP3      9629            0.0000000000
     53803      9829  TIP3      H2             37.5527864915       39.4561613449      -39.8213460067  TIP3      9629            0.0000000000
     53804      9830  TIP3      OH2            35.9613391074       38.1355648386      -45.2957967809  TIP3      9630            0.0000000000
     53805      9830  TIP3      H1             34.9982928854       38.2761915968      -45.4170266293  TIP3      9630            0.0000000000
     53806      9830  TIP3      H2             36.3259050004       38.6658086652      -46.0021900820  TIP3      9630            0.0000000000
     53807      9831  TIP3      OH2            35.8892386928       36.8529997385      -36.9485262044  TIP3      9631            0.0000000000
     53808      9831  TIP3      H1             35.1869718642       36.5536653677      -36.3370031892  TIP3      9631            0.0000000000
     53809      9831  TIP3      H2             35.3971136756       37.4404287794      -37.5613158477  TIP3      9631            0.0000000000
     53810      9832  TIP3      OH2            38.0638780512       36.3861282358      -42.9500561882  TIP3      9632            0.0000000000
     53811      9832  TIP3      H1             37.4472951712       36.1666063202      -43.6643997656  TIP3      9632            0.0000000000
     53812      9832  TIP3      H2             38.7832892186       35.7521742954      -43.0757410207  TIP3      9632            0.0000000000
     53813      9833  TIP3      OH2            37.1653743379       36.1021011517      -47.3931555112  TIP3      9633            0.0000000000
     53814      9833  TIP3      H1             37.6427970659       36.8038973965      -47.8876694598  TIP3      9633            0.0000000000
     53815      9833  TIP3      H2             36.5819297821       36.6360398089      -46.8095185982  TIP3      9633            0.0000000000
     53816      9834  TIP3      OH2            38.9593012817       38.0703311515      -48.8259675005  TIP3      9634            0.0000000000
     53817      9834  TIP3      H1             39.4578961807       37.4396032292      -49.3774603971  TIP3      9634            0.0000000000
     53818      9834  TIP3      H2             39.6609316157       38.3764798507      -48.2396928588  TIP3      9634            0.0000000000
     53819      9835  TIP3      OH2            38.3047652343       36.9122909501      -33.5441834143  TIP3      9635            0.0000000000
     53820      9835  TIP3      H1             37.9307154441       36.0809606839      -33.1880942719  TIP3      9635            0.0000000000
     53821      9835  TIP3      H2             39.2455668316       36.8433162783      -33.3336808798  TIP3      9635            0.0000000000
     53822      9836  TIP3      OH2           -27.9410004602      -29.9576795919      -24.4173748351  TIP3      9636            0.0000000000
     53823      9836  TIP3      H1            -27.9791984328      -28.9790264317      -24.3729329937  TIP3      9636            0.0000000000
     53824      9836  TIP3      H2            -28.7120539849      -30.1897594567      -24.9581208659  TIP3      9636            0.0000000000
     53825      9837  TIP3      OH2           -25.4344428032      -27.7167099292      -22.6179211833  TIP3      9637            0.0000000000
     53826      9837  TIP3      H1            -25.8325965969      -28.4823430639      -22.1472091916  TIP3      9637            0.0000000000
     53827      9837  TIP3      H2            -25.3713688281      -27.0616707901      -21.8994605452  TIP3      9637            0.0000000000
     53828      9838  TIP3      OH2           -35.7489799127      -26.6983919213      -20.6922245152  TIP3      9638            0.0000000000
     53829      9838  TIP3      H1            -36.1173646184      -27.4040608241      -21.2341075551  TIP3      9638            0.0000000000
     53830      9838  TIP3      H2            -34.7837524189      -26.7434557283      -20.8448305852  TIP3      9638            0.0000000000
     53831      9839  TIP3      OH2           -39.0880128037      -32.9315032718      -25.4850420310  TIP3      9639            0.0000000000
     53832      9839  TIP3      H1            -39.6259553411      -32.1333896079      -25.3638367012  TIP3      9639            0.0000000000
     53833      9839  TIP3      H2            -39.7952719118      -33.5591382773      -25.7351162843  TIP3      9639            0.0000000000
     53834      9840  TIP3      OH2           -38.4283290670      -30.7456213748      -23.1357476249  TIP3      9640            0.0000000000
     53835      9840  TIP3      H1            -38.2135563064      -31.5934254522      -22.7419835423  TIP3      9640            0.0000000000
     53836      9840  TIP3      H2            -37.7745865332      -30.6921576221      -23.8469988864  TIP3      9640            0.0000000000
     53837      9841  TIP3      OH2           -26.7085878357      -35.7048569615      -24.5592152909  TIP3      9641            0.0000000000
     53838      9841  TIP3      H1            -26.0824349024      -35.9517969687      -23.8400823945  TIP3      9641            0.0000000000
     53839      9841  TIP3      H2            -26.1577002463      -35.0646521999      -25.0321515110  TIP3      9641            0.0000000000
     53840      9842  TIP3      OH2           -32.5826369545      -31.7744376600      -22.9658811332  TIP3      9642            0.0000000000
     53841      9842  TIP3      H1            -31.9855786632      -32.2412541643      -22.3423868311  TIP3      9642            0.0000000000
     53842      9842  TIP3      H2            -33.2006326282      -32.4666605238      -23.2471089504  TIP3      9642            0.0000000000
     53843      9843  TIP3      OH2           -28.2393564271      -27.3521988271      -25.2377182490  TIP3      9643            0.0000000000
     53844      9843  TIP3      H1            -28.5171229461      -27.6452488486      -26.1140205338  TIP3      9643            0.0000000000
     53845      9843  TIP3      H2            -28.5648063723      -26.4267386002      -25.1963559270  TIP3      9643            0.0000000000
     53846      9844  TIP3      OH2           -24.8630608594      -36.1859020146      -22.6073981826  TIP3      9644            0.0000000000
     53847      9844  TIP3      H1            -25.0730915528      -37.0052765585      -22.1240466818  TIP3      9644            0.0000000000
     53848      9844  TIP3      H2            -24.2236546508      -35.8004755959      -21.9859395167  TIP3      9644            0.0000000000
     53849      9845  TIP3      OH2           -38.4245811465      -27.5141883892      -27.0506117561  TIP3      9645            0.0000000000
     53850      9845  TIP3      H1            -38.7893948738      -27.2025111137      -27.8708175062  TIP3      9645            0.0000000000
     53851      9845  TIP3      H2            -38.4621707923      -26.7395075842      -26.4637561751  TIP3      9645            0.0000000000
     53852      9846  TIP3      OH2           -24.8756129350      -25.8916654542      -20.2802814044  TIP3      9646            0.0000000000
     53853      9846  TIP3      H1            -25.8223931165      -25.8415934434      -20.1184099592  TIP3      9646            0.0000000000
     53854      9846  TIP3      H2            -24.6043346330      -24.9610615674      -20.3475143219  TIP3      9646            0.0000000000
     53855      9847  TIP3      OH2           -26.7287366757      -24.0662902185      -23.6417926372  TIP3      9647            0.0000000000
     53856      9847  TIP3      H1            -26.2577734573      -24.8189554549      -24.0682660683  TIP3      9647            0.0000000000
     53857      9847  TIP3      H2            -26.2110657989      -23.3059805077      -23.9668950295  TIP3      9647            0.0000000000
     53858      9848  TIP3      OH2           -25.4154642280      -26.1771325050      -25.0820191613  TIP3      9648            0.0000000000
     53859      9848  TIP3      H1            -25.7288734437      -26.8726753100      -25.6831738736  TIP3      9648            0.0000000000
     53860      9848  TIP3      H2            -25.3824895927      -26.6905018873      -24.2468146125  TIP3      9648            0.0000000000
     53861      9849  TIP3      OH2           -29.3076664488      -30.7164064687      -26.8515226392  TIP3      9649            0.0000000000
     53862      9849  TIP3      H1            -30.0012795146      -30.1356092099      -27.2119471601  TIP3      9649            0.0000000000
     53863      9849  TIP3      H2            -28.5980501426      -30.6144223084      -27.5106476255  TIP3      9649            0.0000000000
     53864      9850  TIP3      OH2           -29.2267167644      -32.1397134823      -29.8543334161  TIP3      9650            0.0000000000
     53865      9850  TIP3      H1            -28.5211076496      -32.1567003644      -29.1856975745  TIP3      9650            0.0000000000
     53866      9850  TIP3      H2            -28.9191005062      -32.8578595666      -30.4179253545  TIP3      9650            0.0000000000
     53867      9851  TIP3      OH2           -25.8458776806      -30.5011388224      -25.9582690719  TIP3      9651            0.0000000000
     53868      9851  TIP3      H1            -26.5923974912      -30.2662755036      -25.3435708451  TIP3      9651            0.0000000000
     53869      9851  TIP3      H2            -25.3735770796      -31.1755411847      -25.4419851698  TIP3      9651            0.0000000000
     53870      9852  TIP3      OH2           -34.2317264818      -29.7981594011      -24.0353220515  TIP3      9652            0.0000000000
     53871      9852  TIP3      H1            -34.5402137854      -30.2067022574      -24.8675711371  TIP3      9652            0.0000000000
     53872      9852  TIP3      H2            -33.6503352147      -30.5000621476      -23.6421962801  TIP3      9652            0.0000000000
     53873      9853  TIP3      OH2           -32.9695141482      -26.4445739913      -21.2997415839  TIP3      9653            0.0000000000
     53874      9853  TIP3      H1            -32.9259148956      -26.9478097750      -22.1267755152  TIP3      9653            0.0000000000
     53875      9853  TIP3      H2            -32.1457530172      -26.7246600095      -20.8766484045  TIP3      9653            0.0000000000
     53876      9854  TIP3      OH2           -26.9803238644      -31.3015618346      -28.2813559729  TIP3      9654            0.0000000000
     53877      9854  TIP3      H1            -26.4251169935      -31.1208731183      -27.4845502922  TIP3      9654            0.0000000000
     53878      9854  TIP3      H2            -26.5307697825      -30.7997489432      -28.9981603063  TIP3      9654            0.0000000000
     53879      9855  TIP3      OH2           -29.2861804668      -24.5935292254      -24.7633201731  TIP3      9655            0.0000000000
     53880      9855  TIP3      H1            -28.8144742904      -24.2914316021      -23.9736419855  TIP3      9655            0.0000000000
     53881      9855  TIP3      H2            -29.8172839231      -23.8349306751      -25.0353100037  TIP3      9655            0.0000000000
     53882      9856  TIP3      OH2           -23.2715335646      -39.5450183125      -28.3669534526  TIP3      9656            0.0000000000
     53883      9856  TIP3      H1            -24.1922807623      -39.4274779719      -28.0774972420  TIP3      9656            0.0000000000
     53884      9856  TIP3      H2            -23.0599313168      -38.7257484417      -28.8285565183  TIP3      9656            0.0000000000
     53885      9857  TIP3      OH2           -35.2611696482      -30.8255061033      -26.4695279839  TIP3      9657            0.0000000000
     53886      9857  TIP3      H1            -35.5766644387      -30.0182352208      -26.9306413838  TIP3      9657            0.0000000000
     53887      9857  TIP3      H2            -35.9654087388      -31.4467668203      -26.6375073555  TIP3      9657            0.0000000000
     53888      9858  TIP3      OH2           -22.1462458931      -25.2133154302      -30.0139573877  TIP3      9658            0.0000000000
     53889      9858  TIP3      H1            -21.9769431749      -24.2694770273      -29.8493552548  TIP3      9658            0.0000000000
     53890      9858  TIP3      H2            -21.2209816977      -25.5257948110      -30.0213321637  TIP3      9658            0.0000000000
     53891      9859  TIP3      OH2           -39.3554853547      -25.4994585616      -21.2760287374  TIP3      9659            0.0000000000
     53892      9859  TIP3      H1            -38.5961495735      -25.9133768138      -20.8290785131  TIP3      9659            0.0000000000
     53893      9859  TIP3      H2            -39.5908143682      -25.0642250369      -20.4303079324  TIP3      9659            0.0000000000
     53894      9860  TIP3      OH2           -29.7883037602      -21.6672271133      -26.3726619034  TIP3      9660            0.0000000000
     53895      9860  TIP3      H1            -29.9000090572      -21.7414949640      -27.3365986443  TIP3      9660            0.0000000000
     53896      9860  TIP3      H2            -29.7898926038      -20.7025553096      -26.2330650089  TIP3      9660            0.0000000000
     53897      9861  TIP3      OH2           -36.1576725451      -22.8050457227      -24.5758459507  TIP3      9661            0.0000000000
     53898      9861  TIP3      H1            -36.0166973481      -23.2037142086      -23.6865627247  TIP3      9661            0.0000000000
     53899      9861  TIP3      H2            -37.0068411165      -23.2057673687      -24.8130103950  TIP3      9661            0.0000000000
     53900      9862  TIP3      OH2           -26.7326130824      -22.4495149917      -29.4136051649  TIP3      9662            0.0000000000
     53901      9862  TIP3      H1            -26.2778895174      -23.2096148599      -29.8392004311  TIP3      9662            0.0000000000
     53902      9862  TIP3      H2            -26.6977695740      -22.7040188299      -28.4627651174  TIP3      9662            0.0000000000
     53903      9863  TIP3      OH2           -27.0358136753      -22.5177382357      -26.6280085076  TIP3      9663            0.0000000000
     53904      9863  TIP3      H1            -27.9948963893      -22.4402256208      -26.4492938978  TIP3      9663            0.0000000000
     53905      9863  TIP3      H2            -26.7976177402      -23.2539041571      -26.0402380681  TIP3      9663            0.0000000000
     53906      9864  TIP3      OH2           -25.5337120212      -30.2591964794      -30.4571140111  TIP3      9664            0.0000000000
     53907      9864  TIP3      H1            -25.5546214779      -30.4475842300      -31.4231967223  TIP3      9664            0.0000000000
     53908      9864  TIP3      H2            -24.6734152270      -29.8201547824      -30.4059097943  TIP3      9664            0.0000000000
     53909      9865  TIP3      OH2           -29.9058752987      -36.3738591518      -29.9344185169  TIP3      9665            0.0000000000
     53910      9865  TIP3      H1            -30.2644367306      -36.3970467587      -29.0372756778  TIP3      9665            0.0000000000
     53911      9865  TIP3      H2            -30.2533277326      -37.2242744867      -30.2762167559  TIP3      9665            0.0000000000
     53912      9866  TIP3      OH2           -34.1269179387      -33.5285354902      -24.5116463194  TIP3      9666            0.0000000000
     53913      9866  TIP3      H1            -35.0628696234      -33.5750817756      -24.5576581947  TIP3      9666            0.0000000000
     53914      9866  TIP3      H2            -33.7511273327      -33.7465324743      -25.3844409854  TIP3      9666            0.0000000000
     53915      9867  TIP3      OH2           -28.6871051719      -33.0472249843      -25.7385822971  TIP3      9667            0.0000000000
     53916      9867  TIP3      H1            -29.0377404350      -32.1898815443      -26.0643962133  TIP3      9667            0.0000000000
     53917      9867  TIP3      H2            -27.9556833566      -33.1729671811      -26.3570638007  TIP3      9667            0.0000000000
     53918      9868  TIP3      OH2           -27.6844972296      -33.5711023994      -22.8979305132  TIP3      9668            0.0000000000
     53919      9868  TIP3      H1            -27.8744946472      -32.9349198774      -23.6051827647  TIP3      9668            0.0000000000
     53920      9868  TIP3      H2            -27.4598910051      -34.3775729468      -23.3899979712  TIP3      9668            0.0000000000
     53921      9869  TIP3      OH2           -33.1224049910      -35.9389646033      -30.8122420189  TIP3      9669            0.0000000000
     53922      9869  TIP3      H1            -33.5951695313      -36.3989288114      -30.0981095739  TIP3      9669            0.0000000000
     53923      9869  TIP3      H2            -33.8381569490      -35.5551003148      -31.3381165997  TIP3      9669            0.0000000000
     53924      9870  TIP3      OH2           -39.8296160463      -36.3085242720      -23.7646309833  TIP3      9670            0.0000000000
     53925      9870  TIP3      H1            -39.1793762700      -36.2694354704      -23.0607867330  TIP3      9670            0.0000000000
     53926      9870  TIP3      H2            -39.3952184929      -36.7405155014      -24.5074265378  TIP3      9670            0.0000000000
     53927      9871  TIP3      OH2           -38.5447654995      -35.4907887953      -28.2741260277  TIP3      9671            0.0000000000
     53928      9871  TIP3      H1            -38.0721204973      -34.9232879400      -28.9340803451  TIP3      9671            0.0000000000
     53929      9871  TIP3      H2            -39.2691127183      -34.9283771811      -27.9858519335  TIP3      9671            0.0000000000
     53930      9872  TIP3      OH2           -31.6074529444      -36.1111755439      -23.5207677312  TIP3      9672            0.0000000000
     53931      9872  TIP3      H1            -32.5123872393      -35.9341615817      -23.2164188262  TIP3      9672            0.0000000000
     53932      9872  TIP3      H2            -31.1286146000      -36.0160096296      -22.6866224758  TIP3      9672            0.0000000000
     53933      9873  TIP3      OH2           -33.1646949866      -34.3619289125      -26.9563930775  TIP3      9673            0.0000000000
     53934      9873  TIP3      H1            -32.2007147096      -34.2335393877      -26.8440776157  TIP3      9673            0.0000000000
     53935      9873  TIP3      H2            -33.3825878493      -33.7057290917      -27.6503081495  TIP3      9673            0.0000000000
     53936      9874  TIP3      OH2           -34.4372502234      -33.2191245220      -29.3936541208  TIP3      9674            0.0000000000
     53937      9874  TIP3      H1            -34.9746242267      -33.5508960936      -30.1383596174  TIP3      9674            0.0000000000
     53938      9874  TIP3      H2            -33.6344137001      -32.9617855333      -29.8824215448  TIP3      9674            0.0000000000
     53939      9875  TIP3      OH2           -30.4070758081      -33.3339419617      -21.6647052766  TIP3      9675            0.0000000000
     53940      9875  TIP3      H1            -29.6439751800      -33.7301742467      -22.1019326711  TIP3      9675            0.0000000000
     53941      9875  TIP3      H2            -30.4411066879      -33.7370971471      -20.8013168599  TIP3      9675            0.0000000000
     53942      9876  TIP3      OH2           -35.2996790944      -37.0782818115      -25.1904042989  TIP3      9676            0.0000000000
     53943      9876  TIP3      H1            -35.6827399344      -37.9777092424      -25.1377879242  TIP3      9676            0.0000000000
     53944      9876  TIP3      H2            -34.5077286078      -37.2057662222      -25.7207549869  TIP3      9676            0.0000000000
     53945      9877  TIP3      OH2           -31.0943181541      -28.6447350664      -27.4746323140  TIP3      9677            0.0000000000
     53946      9877  TIP3      H1            -31.8917508264      -29.1067674963      -27.8209171056  TIP3      9677            0.0000000000
     53947      9877  TIP3      H2            -31.3252662382      -28.5289017600      -26.5268222155  TIP3      9677            0.0000000000
     53948      9878  TIP3      OH2           -27.2873333539      -35.8655805950      -29.2442321502  TIP3      9678            0.0000000000
     53949      9878  TIP3      H1            -28.2128783342      -35.6576379407      -29.4729289414  TIP3      9678            0.0000000000
     53950      9878  TIP3      H2            -26.9148479300      -34.9889457713      -28.9833583716  TIP3      9678            0.0000000000
     53951      9879  TIP3      OH2           -26.5288251841      -33.9224648759      -27.7214518387  TIP3      9679            0.0000000000
     53952      9879  TIP3      H1            -25.6647452679      -34.0364643608      -27.2769340828  TIP3      9679            0.0000000000
     53953      9879  TIP3      H2            -26.4306506410      -33.0789303319      -28.1912238223  TIP3      9679            0.0000000000
     53954      9880  TIP3      OH2           -29.0035532649      -27.1759645670      -28.4620759009  TIP3      9680            0.0000000000
     53955      9880  TIP3      H1            -29.3435285241      -26.3322103386      -28.0981676292  TIP3      9680            0.0000000000
     53956      9880  TIP3      H2            -29.7290931075      -27.7956695306      -28.2329734795  TIP3      9680            0.0000000000
     53957      9881  TIP3      OH2           -21.6336752348      -33.7698032184      -27.9087002852  TIP3      9681            0.0000000000
     53958      9881  TIP3      H1            -22.1880958124      -34.0684124600      -28.6580870598  TIP3      9681            0.0000000000
     53959      9881  TIP3      H2            -21.5550692660      -32.8231520742      -28.1626040773  TIP3      9681            0.0000000000
     53960      9882  TIP3      OH2           -23.3671013177      -24.9402919922      -27.5225633511  TIP3      9682            0.0000000000
     53961      9882  TIP3      H1            -23.7051229315      -25.7740086325      -27.1701943560  TIP3      9682            0.0000000000
     53962      9882  TIP3      H2            -23.0159094571      -25.1644925619      -28.4005584284  TIP3      9682            0.0000000000
     53963      9883  TIP3      OH2           -33.6197094787      -25.8074641927      -24.3032915704  TIP3      9683            0.0000000000
     53964      9883  TIP3      H1            -33.1169410253      -24.9994482850      -24.5032548992  TIP3      9683            0.0000000000
     53965      9883  TIP3      H2            -34.4978271055      -25.5629872349      -24.6201565851  TIP3      9683            0.0000000000
     53966      9884  TIP3      OH2           -37.9180567679      -30.9316439095      -29.7509628154  TIP3      9684            0.0000000000
     53967      9884  TIP3      H1            -37.2774231753      -30.3132238575      -29.3413369705  TIP3      9684            0.0000000000
     53968      9884  TIP3      H2            -38.7543886811      -30.5862063515      -29.4268072031  TIP3      9684            0.0000000000
     53969      9885  TIP3      OH2           -32.1917321263      -28.1136921013      -24.8141470164  TIP3      9685            0.0000000000
     53970      9885  TIP3      H1            -32.5074840991      -27.2026229130      -24.6840600482  TIP3      9685            0.0000000000
     53971      9885  TIP3      H2            -32.8987720380      -28.6224895783      -24.3640276637  TIP3      9685            0.0000000000
     53972      9886  TIP3      OH2           -33.5055675011      -23.1315619312      -25.2614435846  TIP3      9686            0.0000000000
     53973      9886  TIP3      H1            -34.4698693261      -23.0019931989      -25.1293244808  TIP3      9686            0.0000000000
     53974      9886  TIP3      H2            -33.1530298355      -22.3060938629      -24.8777661686  TIP3      9686            0.0000000000
     53975      9887  TIP3      OH2           -25.8825760794      -26.8669374680      -29.6693892160  TIP3      9687            0.0000000000
     53976      9887  TIP3      H1            -25.5883599873      -27.3437667732      -28.8672795331  TIP3      9687            0.0000000000
     53977      9887  TIP3      H2            -26.8358779191      -27.0551644232      -29.5893052722  TIP3      9687            0.0000000000
     53978      9888  TIP3      OH2           -21.4213493701      -22.5204589623      -29.4130237128  TIP3      9688            0.0000000000
     53979      9888  TIP3      H1            -20.7343195738      -21.8548790217      -29.6188955179  TIP3      9688            0.0000000000
     53980      9888  TIP3      H2            -22.1362312814      -21.9093576603      -29.1273200012  TIP3      9688            0.0000000000
     53981      9889  TIP3      OH2           -25.1081763793      -28.2360254632      -27.4275265214  TIP3      9689            0.0000000000
     53982      9889  TIP3      H1            -25.3527270795      -29.0172727361      -26.8849621982  TIP3      9689            0.0000000000
     53983      9889  TIP3      H2            -24.1528331462      -28.2068953269      -27.2586402052  TIP3      9689            0.0000000000
     53984      9890  TIP3      OH2           -31.7721807751      -25.7998554028      -31.1724384191  TIP3      9690            0.0000000000
     53985      9890  TIP3      H1            -31.6571670656      -26.5651905040      -31.7582683159  TIP3      9690            0.0000000000
     53986      9890  TIP3      H2            -32.2018312647      -26.2339880590      -30.4043028565  TIP3      9690            0.0000000000
     53987      9891  TIP3      OH2           -32.9966085285      -26.2774140612      -28.7310305363  TIP3      9691            0.0000000000
     53988      9891  TIP3      H1            -32.7359007250      -26.7874645144      -27.9549821374  TIP3      9691            0.0000000000
     53989      9891  TIP3      H2            -32.9269786659      -25.3474060403      -28.4112034214  TIP3      9691            0.0000000000
     53990      9892  TIP3      OH2           -36.4886426581      -29.0322294863      -28.2713320547  TIP3      9692            0.0000000000
     53991      9892  TIP3      H1            -37.1673414752      -28.6447952699      -27.6728833677  TIP3      9692            0.0000000000
     53992      9892  TIP3      H2            -35.9480643286      -28.2565856255      -28.5141386469  TIP3      9692            0.0000000000
     53993      9893  TIP3      OH2           -27.8732519307      -36.7808782446      -26.8303121163  TIP3      9693            0.0000000000
     53994      9893  TIP3      H1            -27.6391336766      -36.2719109386      -27.6399586982  TIP3      9693            0.0000000000
     53995      9893  TIP3      H2            -27.3163276060      -36.3267305741      -26.1629727724  TIP3      9693            0.0000000000
     53996      9894  TIP3      OH2           -30.1833685373      -24.6138523104      -28.0280712753  TIP3      9694            0.0000000000
     53997      9894  TIP3      H1            -30.9987756246      -24.0795967516      -27.9534096631  TIP3      9694            0.0000000000
     53998      9894  TIP3      H2            -29.6412122312      -24.0606225919      -28.6100657147  TIP3      9694            0.0000000000
     53999      9895  TIP3      OH2           -30.6232263640      -35.0713893656      -26.0058069965  TIP3      9695            0.0000000000
     54000      9895  TIP3      H1            -29.8699051657      -34.4378088797      -25.9627951334  TIP3      9695            0.0000000000
     54001      9895  TIP3      H2            -30.8645388944      -35.0994391577      -25.0630524624  TIP3      9695            0.0000000000
     54002      9896  TIP3      OH2           -29.4721090951      -37.7388023121      -24.7357840668  TIP3      9696            0.0000000000
     54003      9896  TIP3      H1            -30.0843814763      -37.1003135507      -24.3396897393  TIP3      9696            0.0000000000
     54004      9896  TIP3      H2            -28.9566937724      -37.2383940060      -25.4031756884  TIP3      9696            0.0000000000
     54005      9897  TIP3      OH2           -32.7797460584      -23.5825164050      -28.0026470680  TIP3      9697            0.0000000000
     54006      9897  TIP3      H1            -32.6848080360      -22.7644585769      -28.5492327048  TIP3      9697            0.0000000000
     54007      9897  TIP3      H2            -33.0429464836      -23.2115680951      -27.1315142930  TIP3      9697            0.0000000000
     54008      9898  TIP3      OH2           -34.1609830369      -36.8325273607      -28.3629388391  TIP3      9698            0.0000000000
     54009      9898  TIP3      H1            -34.1832709811      -35.9010643133      -28.0820208877  TIP3      9698            0.0000000000
     54010      9898  TIP3      H2            -33.2235117557      -37.0562868944      -28.2125212564  TIP3      9698            0.0000000000
     54011      9899  TIP3      OH2           -35.8397899215      -26.3916909154      -29.3742518254  TIP3      9699            0.0000000000
     54012      9899  TIP3      H1            -35.1807379045      -25.7653646879      -29.0604530242  TIP3      9699            0.0000000000
     54013      9899  TIP3      H2            -35.3287076640      -26.8675136947      -30.0599561948  TIP3      9699            0.0000000000
     54014      9900  TIP3      OH2           -37.5598744481      -33.7468451566      -30.1569886899  TIP3      9700            0.0000000000
     54015      9900  TIP3      H1            -37.5365996463      -32.7781107715      -30.0475671979  TIP3      9700            0.0000000000
     54016      9900  TIP3      H2            -38.4284313271      -33.9029844170      -30.5377059303  TIP3      9700            0.0000000000
     54017      9901  TIP3      OH2           -36.6568391623      -38.7836357397      -21.5871945258  TIP3      9701            0.0000000000
     54018      9901  TIP3      H1            -36.9079643905      -38.8903193505      -22.5115909064  TIP3      9701            0.0000000000
     54019      9901  TIP3      H2            -36.9240326423      -39.6324299776      -21.2586853217  TIP3      9701            0.0000000000
     54020      9902  TIP3      OH2           -37.7510375812      -25.0369443715      -25.3104098335  TIP3      9702            0.0000000000
     54021      9902  TIP3      H1            -38.6108014828      -24.6046096109      -25.3789406001  TIP3      9702            0.0000000000
     54022      9902  TIP3      H2            -37.2738698184      -24.5695122918      -26.0096974496  TIP3      9702            0.0000000000
     54023      9903  TIP3      OH2           -29.7621144486      -23.9513497671      -31.0490517824  TIP3      9703            0.0000000000
     54024      9903  TIP3      H1            -30.4550158949      -24.6098863489      -30.8219496070  TIP3      9703            0.0000000000
     54025      9903  TIP3      H2            -29.0437219866      -24.5500240643      -31.2963557255  TIP3      9703            0.0000000000
     54026      9904  TIP3      OH2           -25.2038045343      -24.2081397771      -30.8635178800  TIP3      9704            0.0000000000
     54027      9904  TIP3      H1            -24.9078354105      -24.9833270964      -30.3588137826  TIP3      9704            0.0000000000
     54028      9904  TIP3      H2            -24.4403425247      -23.9840542586      -31.4152304403  TIP3      9704            0.0000000000
     54029      9905  TIP3      OH2           -34.3309301234      -28.2692896078      -31.0385822286  TIP3      9705            0.0000000000
     54030      9905  TIP3      H1            -34.1804375107      -29.0253896298      -30.4493864911  TIP3      9705            0.0000000000
     54031      9905  TIP3      H2            -33.5762460064      -28.3846960127      -31.6469587226  TIP3      9705            0.0000000000
     54032      9906  TIP3      OH2           -28.8871744234      -27.1559200700      -31.2668740896  TIP3      9706            0.0000000000
     54033      9906  TIP3      H1            -29.1570781423      -27.0762144566      -30.3381112099  TIP3      9706            0.0000000000
     54034      9906  TIP3      H2            -29.0752413331      -28.1137565204      -31.4117768486  TIP3      9706            0.0000000000
     54035      9907  TIP3      OH2           -33.1025428809      -30.2408145491      -28.6403597793  TIP3      9707            0.0000000000
     54036      9907  TIP3      H1            -33.5958369402      -30.7727965252      -28.0017144276  TIP3      9707            0.0000000000
     54037      9907  TIP3      H2            -32.8080894577      -30.9263259053      -29.2823458246  TIP3      9707            0.0000000000
     54038      9908  TIP3      OH2           -32.0503985221      -32.0192823218      -30.4275054714  TIP3      9708            0.0000000000
     54039      9908  TIP3      H1            -32.1929870237      -32.1077579910      -31.3885339122  TIP3      9708            0.0000000000
     54040      9908  TIP3      H2            -31.0717310028      -31.9730552123      -30.3513901996  TIP3      9708            0.0000000000
     54041      9909  TIP3      OH2           -22.7084178628      -29.7026491458      -31.0096606825  TIP3      9709            0.0000000000
     54042      9909  TIP3      H1            -22.9059258668      -30.0764250986      -31.8788145713  TIP3      9709            0.0000000000
     54043      9909  TIP3      H2            -22.6204320630      -28.7411620511      -31.1912008350  TIP3      9709            0.0000000000
     54044      9910  TIP3      OH2           -32.2076382651      -21.3218756139      -29.3363276353  TIP3      9710            0.0000000000
     54045      9910  TIP3      H1            -31.2405946868      -21.2399710063      -29.2700855188  TIP3      9710            0.0000000000
     54046      9910  TIP3      H2            -32.3520685236      -20.7234352367      -30.0779870214  TIP3      9710            0.0000000000
     54047      9911  TIP3      OH2           -38.2559711066      -26.6299173057      -30.1674151164  TIP3      9711            0.0000000000
     54048      9911  TIP3      H1            -37.3757039296      -26.7050283557      -29.7288858334  TIP3      9711            0.0000000000
     54049      9911  TIP3      H2            -38.3569782248      -27.4755634374      -30.6420962662  TIP3      9711            0.0000000000
     54050      9912  TIP3      OH2            40.2578120445      -21.1372117454      -25.0622438646  TIP3      9712            0.0000000000
     54051      9912  TIP3      H1             39.4980458532      -21.6219890815      -25.4421762135  TIP3      9712            0.0000000000
     54052      9912  TIP3      H2             40.4186522497      -21.8158946031      -24.3751836251  TIP3      9712            0.0000000000
     54053      9913  TIP3      OH2           -38.9397938707      -23.2394984937      -22.9049346079  TIP3      9713            0.0000000000
     54054      9913  TIP3      H1            -39.2313512216      -24.1661086942      -22.7473905010  TIP3      9713            0.0000000000
     54055      9913  TIP3      H2            -38.6900712364      -22.9225379318      -22.0208945211  TIP3      9713            0.0000000000
     54056      9914  TIP3      OH2           -22.1791312777      -28.7825283391      -27.0489568017  TIP3      9714            0.0000000000
     54057      9914  TIP3      H1            -21.3102959317      -28.3964036141      -26.8666934939  TIP3      9714            0.0000000000
     54058      9914  TIP3      H2            -22.1972397435      -29.5066435662      -26.3857776849  TIP3      9714            0.0000000000
     54059      9915  TIP3      OH2           -21.8215825598      -30.7003754404      -25.1592552748  TIP3      9715            0.0000000000
     54060      9915  TIP3      H1            -22.5591432917      -31.2209213433      -24.7588915411  TIP3      9715            0.0000000000
     54061      9915  TIP3      H2            -21.2240749272      -30.6008441175      -24.3977167321  TIP3      9715            0.0000000000
     54062      9916  TIP3      OH2           -22.0512720827      -27.9844700725      -20.1367998895  TIP3      9716            0.0000000000
     54063      9916  TIP3      H1            -21.2500930278      -28.3738036013      -20.4832821668  TIP3      9716            0.0000000000
     54064      9916  TIP3      H2            -21.9605004550      -27.0429462724      -20.3649188475  TIP3      9716            0.0000000000
     54065      9917  TIP3      OH2           -21.5162334850      -30.8841474396      -28.7701038253  TIP3      9717            0.0000000000
     54066      9917  TIP3      H1            -22.0884630552      -30.5357547065      -29.4847361869  TIP3      9717            0.0000000000
     54067      9917  TIP3      H2            -21.6159315999      -30.1731159746      -28.1121334368  TIP3      9717            0.0000000000
     54068      9918  TIP3      OH2           -23.1219614627      -33.6657410867      -30.2655606950  TIP3      9718            0.0000000000
     54069      9918  TIP3      H1            -23.0801461148      -32.9861717407      -30.9501096168  TIP3      9718            0.0000000000
     54070      9918  TIP3      H2            -23.3515283130      -34.4819674387      -30.7473266535  TIP3      9718            0.0000000000
     54071      9919  TIP3      OH2           -23.9765913195      -32.2451650792      -24.6005112053  TIP3      9719            0.0000000000
     54072      9919  TIP3      H1            -24.1482205454      -33.1979265583      -24.6262489462  TIP3      9719            0.0000000000
     54073      9919  TIP3      H2            -24.3061470853      -32.0139914806      -23.7215610386  TIP3      9719            0.0000000000
     54074      9920  TIP3      OH2           -38.8033877627      -30.4214497440      -20.3980168135  TIP3      9720            0.0000000000
     54075      9920  TIP3      H1            -38.7312029020      -30.2666665258      -21.3720552706  TIP3      9720            0.0000000000
     54076      9920  TIP3      H2            -37.8948198678      -30.3386120381      -20.1330298408  TIP3      9720            0.0000000000
     54077      9921  TIP3      OH2           -23.8633888827      -36.2159194941      -31.1297017817  TIP3      9721            0.0000000000
     54078      9921  TIP3      H1            -23.3033331259      -36.6534729788      -30.4569610115  TIP3      9721            0.0000000000
     54079      9921  TIP3      H2            -24.7432255651      -36.6296896345      -31.0052065460  TIP3      9721            0.0000000000
     54080      9922  TIP3      OH2           -24.3481979778      -34.6369634238      -26.1799091448  TIP3      9722            0.0000000000
     54081      9922  TIP3      H1            -24.0485015070      -35.5575213621      -26.0151267052  TIP3      9722            0.0000000000
     54082      9922  TIP3      H2            -23.5161955762      -34.2436674334      -26.4795364244  TIP3      9722            0.0000000000
     54083      9923  TIP3      OH2           -23.7263715686      -34.0947062516      -20.7088196790  TIP3      9723            0.0000000000
     54084      9923  TIP3      H1            -22.7663252424      -33.9267849090      -20.7668599920  TIP3      9723            0.0000000000
     54085      9923  TIP3      H2            -23.9082042851      -34.0081515545      -19.7737238036  TIP3      9723            0.0000000000
     54086      9924  TIP3      OH2           -23.6631689019      -37.3538103171      -26.1022511987  TIP3      9724            0.0000000000
     54087      9924  TIP3      H1            -23.5022002092      -37.8134754998      -25.2486203177  TIP3      9724            0.0000000000
     54088      9924  TIP3      H2            -24.2367940982      -38.0084894888      -26.5592362210  TIP3      9724            0.0000000000
     54089      9925  TIP3      OH2           -21.8338804508      -37.2917307847      -29.5588441855  TIP3      9725            0.0000000000
     54090      9925  TIP3      H1            -21.4326539613      -38.0570587666      -30.0364837220  TIP3      9725            0.0000000000
     54091      9925  TIP3      H2            -21.1080063396      -36.6607942026      -29.4687733417  TIP3      9725            0.0000000000
     54092      9926  TIP3      OH2           -39.5325122386      -37.3526351842      -26.4911139968  TIP3      9726            0.0000000000
     54093      9926  TIP3      H1            -40.4700729603      -37.1349463907      -26.5882233263  TIP3      9726            0.0000000000
     54094      9926  TIP3      H2            -39.0870576238      -36.8236310697      -27.1818381697  TIP3      9726            0.0000000000
     54095      9927  TIP3      OH2           -24.8015780473      -22.3323085416      -24.4844601478  TIP3      9727            0.0000000000
     54096      9927  TIP3      H1            -24.1148805322      -22.6494021173      -25.0999867017  TIP3      9727            0.0000000000
     54097      9927  TIP3      H2            -24.2788927070      -21.8616899576      -23.8112009867  TIP3      9727            0.0000000000
     54098      9928  TIP3      OH2           -37.4706008808      -22.5245957132      -20.7573231807  TIP3      9728            0.0000000000
     54099      9928  TIP3      H1            -37.5803336675      -23.0159357505      -19.9279334989  TIP3      9728            0.0000000000
     54100      9928  TIP3      H2            -36.7201957643      -22.9664406375      -21.1955142982  TIP3      9728            0.0000000000
     54101      9929  TIP3      OH2           -35.4720720131      -23.8624043571      -22.0370334374  TIP3      9729            0.0000000000
     54102      9929  TIP3      H1            -35.6505454297      -24.8077289814      -21.9136803735  TIP3      9729            0.0000000000
     54103      9929  TIP3      H2            -34.6092924942      -23.7671171165      -21.6165040866  TIP3      9729            0.0000000000
     54104      9930  TIP3      OH2           -24.0890597092      -38.9435699279      -21.9002839319  TIP3      9730            0.0000000000
     54105      9930  TIP3      H1            -23.5373894015      -38.9631464082      -22.7056482017  TIP3      9730            0.0000000000
     54106      9930  TIP3      H2            -24.9907474076      -39.2548531722      -22.1377877386  TIP3      9730            0.0000000000
     54107      9931  TIP3      OH2           -22.5857188201      -38.4037877238      -23.8721464823  TIP3      9731            0.0000000000
     54108      9931  TIP3      H1            -21.8752758917      -39.0265899842      -24.1104773639  TIP3      9731            0.0000000000
     54109      9931  TIP3      H2            -22.1061333437      -37.5680870010      -23.6645516208  TIP3      9731            0.0000000000
     54110      9932  TIP3      OH2           -37.0663514158      -39.0756158517      -24.3338999390  TIP3      9732            0.0000000000
     54111      9932  TIP3      H1            -37.8790133857      -39.3299364571      -24.8012861393  TIP3      9732            0.0000000000
     54112      9932  TIP3      H2            -36.6206876834      -39.9353026092      -24.2661596891  TIP3      9732            0.0000000000
     54113      9933  TIP3      OH2           -38.3288648876      -39.3386584775      -28.5103210812  TIP3      9733            0.0000000000
     54114      9933  TIP3      H1            -37.8047332411      -38.7175532545      -29.0450370414  TIP3      9733            0.0000000000
     54115      9933  TIP3      H2            -38.8778602801      -38.7446676543      -27.9789720401  TIP3      9733            0.0000000000
     54116      9934  TIP3      OH2           -32.6051407729      -38.6944641297      -24.6162963646  TIP3      9734            0.0000000000
     54117      9934  TIP3      H1            -31.6645527999      -38.7426614304      -24.4306370206  TIP3      9734            0.0000000000
     54118      9934  TIP3      H2            -32.7897591368      -39.2399853956      -23.8139369358  TIP3      9734            0.0000000000
     54119      9935  TIP3      OH2           -25.6212075211      -39.0489868346      -27.1531258058  TIP3      9735            0.0000000000
     54120      9935  TIP3      H1            -26.3903307213      -38.4749138928      -27.2469044584  TIP3      9735            0.0000000000
     54121      9935  TIP3      H2            -25.9429444861      -39.9406701160      -26.9503976132  TIP3      9735            0.0000000000
     54122      9936  TIP3      OH2           -38.3812174657      -23.3921413261      -27.5071113425  TIP3      9736            0.0000000000
     54123      9936  TIP3      H1            -39.0396778229      -23.3807146885      -28.2062553869  TIP3      9736            0.0000000000
     54124      9936  TIP3      H2            -38.3482129094      -22.4402305355      -27.3133989419  TIP3      9736            0.0000000000
     54125      9937  TIP3      OH2           -36.4619899780      -37.4546762720      -29.9929223045  TIP3      9737            0.0000000000
     54126      9937  TIP3      H1            -35.9101268638      -37.9996681872      -30.5803833734  TIP3      9737            0.0000000000
     54127      9937  TIP3      H2            -35.7864862583      -37.0968747161      -29.3868538550  TIP3      9737            0.0000000000
     54128      9938  TIP3      OH2           -31.4832561699      -37.0768834751      -27.6007907190  TIP3      9738            0.0000000000
     54129      9938  TIP3      H1            -31.3863571399      -37.5947583542      -26.8352648782  TIP3      9738            0.0000000000
     54130      9938  TIP3      H2            -31.4033329465      -36.1833753647      -27.1855985614  TIP3      9738            0.0000000000
     54131      9939  TIP3      OH2           -29.4924444869      -22.0714397985      -29.1471052975  TIP3      9739            0.0000000000
     54132      9939  TIP3      H1            -28.5747842039      -21.8466668134      -29.3700075940  TIP3      9739            0.0000000000
     54133      9939  TIP3      H2            -29.7128444430      -22.5915366089      -29.9478243885  TIP3      9739            0.0000000000
     54134      9940  TIP3      OH2           -22.7864888476      -22.5747576611      -26.4416223606  TIP3      9740            0.0000000000
     54135      9940  TIP3      H1            -22.9899337512      -23.3568784320      -27.0073783241  TIP3      9740            0.0000000000
     54136      9940  TIP3      H2            -22.8674943122      -21.8354817234      -27.0778204502  TIP3      9740            0.0000000000
     54137      9941  TIP3      OH2           -36.6032410138      -22.4318220131      -30.5461286926  TIP3      9741            0.0000000000
     54138      9941  TIP3      H1            -36.8103646117      -22.1282476099      -29.6552621015  TIP3      9741            0.0000000000
     54139      9941  TIP3      H2            -35.7842043090      -22.9470622909      -30.3943976291  TIP3      9741            0.0000000000
     54140      9942  TIP3      OH2            -9.1245554625      -29.9295300265      -24.3226203264  TIP3      9742            0.0000000000
     54141      9942  TIP3      H1             -9.1191222011      -28.9524892361      -24.4230363337  TIP3      9742            0.0000000000
     54142      9942  TIP3      H2             -9.8023679474      -30.1856795271      -24.9751019800  TIP3      9742            0.0000000000
     54143      9943  TIP3      OH2           -10.3117052107      -30.6831578029      -20.8500800250  TIP3      9743            0.0000000000
     54144      9943  TIP3      H1            -10.2256786174      -31.3411484947      -20.1352707062  TIP3      9743            0.0000000000
     54145      9943  TIP3      H2            -10.3943662151      -31.1690774139      -21.6652949852  TIP3      9743            0.0000000000
     54146      9944  TIP3      OH2            -6.4563126070      -27.7615953327      -22.5392732337  TIP3      9744            0.0000000000
     54147      9944  TIP3      H1             -7.0494443675      -28.4022901093      -22.1546697453  TIP3      9744            0.0000000000
     54148      9944  TIP3      H2             -6.5941084833      -26.9941888675      -21.9582354247  TIP3      9744            0.0000000000
     54149      9945  TIP3      OH2           -20.3283881771      -33.0296562608      -25.3153420512  TIP3      9745            0.0000000000
     54150      9945  TIP3      H1            -20.7589395212      -32.1610984719      -25.3882999077  TIP3      9745            0.0000000000
     54151      9945  TIP3      H2            -20.9057143666      -33.5611404882      -25.8788917488  TIP3      9745            0.0000000000
     54152      9946  TIP3      OH2           -19.5356642887      -30.7245312663      -23.1464071064  TIP3      9746            0.0000000000
     54153      9946  TIP3      H1            -19.4153682562      -31.6107509208      -22.7652790434  TIP3      9746            0.0000000000
     54154      9946  TIP3      H2            -18.9203100801      -30.7531962737      -23.8909503818  TIP3      9746            0.0000000000
     54155      9947  TIP3      OH2           -11.8720309055      -28.2621229198      -20.4555365714  TIP3      9747            0.0000000000
     54156      9947  TIP3      H1            -11.4571307586      -28.9185458311      -21.0170706007  TIP3      9747            0.0000000000
     54157      9947  TIP3      H2            -11.1704392339      -28.0889513638      -19.7996909380  TIP3      9747            0.0000000000
     54158      9948  TIP3      OH2           -15.4002196508      -35.6447014930      -23.0839036355  TIP3      9748            0.0000000000
     54159      9948  TIP3      H1            -15.6069025694      -34.7667607151      -23.4018738704  TIP3      9748            0.0000000000
     54160      9948  TIP3      H2            -16.0120196448      -36.2416911442      -23.5571010759  TIP3      9748            0.0000000000
     54161      9949  TIP3      OH2            -7.8541031954      -35.6541237442      -24.5688740540  TIP3      9749            0.0000000000
     54162      9949  TIP3      H1             -7.2463492433      -35.9553028381      -23.8504485292  TIP3      9749            0.0000000000
     54163      9949  TIP3      H2             -7.2728615086      -35.0514637442      -25.0481493979  TIP3      9749            0.0000000000
     54164      9950  TIP3      OH2            -9.3690198400      -27.3415496720      -25.2849089675  TIP3      9750            0.0000000000
     54165      9950  TIP3      H1             -9.6505051445      -27.6268302023      -26.1619805417  TIP3      9750            0.0000000000
     54166      9950  TIP3      H2             -9.6958071533      -26.4173161755      -25.2536686058  TIP3      9750            0.0000000000
     54167      9951  TIP3      OH2            -6.0977456081      -36.2818583857      -22.4862589463  TIP3      9751            0.0000000000
     54168      9951  TIP3      H1             -6.2568127842      -37.0888764750      -21.9671696997  TIP3      9751            0.0000000000
     54169      9951  TIP3      H2             -5.3844302026      -35.8963820279      -21.9649113133  TIP3      9751            0.0000000000
     54170      9952  TIP3      OH2           -19.6517785719      -27.5699074669      -26.9854271490  TIP3      9752            0.0000000000
     54171      9952  TIP3      H1            -19.8960357605      -27.2397428752      -27.8684182956  TIP3      9752            0.0000000000
     54172      9952  TIP3      H2            -19.5642937837      -26.7334791887      -26.4831057797  TIP3      9752            0.0000000000
     54173      9953  TIP3      OH2           -12.6754804019      -39.4381653135      -21.3916034474  TIP3      9753            0.0000000000
     54174      9953  TIP3      H1            -12.7148493564      -40.4094027770      -21.2700023488  TIP3      9753            0.0000000000
     54175      9953  TIP3      H2            -13.4656442356      -39.1425178656      -20.9679181105  TIP3      9753            0.0000000000
     54176      9954  TIP3      OH2            -7.8775595000      -24.0823183047      -23.6206121293  TIP3      9754            0.0000000000
     54177      9954  TIP3      H1             -7.3894540066      -24.8145669876      -24.0701595173  TIP3      9754            0.0000000000
     54178      9954  TIP3      H2             -7.3538483367      -23.3327281565      -23.9781832565  TIP3      9754            0.0000000000
     54179      9955  TIP3      OH2            -6.5948663702      -26.1750986027      -25.0855472019  TIP3      9755            0.0000000000
     54180      9955  TIP3      H1             -6.8731691723      -26.8653654116      -25.7102133722  TIP3      9755            0.0000000000
     54181      9955  TIP3      H2             -6.5134841570      -26.6910005161      -24.2654362721  TIP3      9755            0.0000000000
     54182      9956  TIP3      OH2           -10.4567685151      -30.7152506781      -26.8423434124  TIP3      9756            0.0000000000
     54183      9956  TIP3      H1            -11.1450604927      -30.1356387868      -27.2212096589  TIP3      9756            0.0000000000
     54184      9956  TIP3      H2             -9.7500211821      -30.6155058641      -27.5054158487  TIP3      9756            0.0000000000
     54185      9957  TIP3      OH2           -10.3692798311      -32.1389931807      -29.8497103365  TIP3      9757            0.0000000000
     54186      9957  TIP3      H1             -9.6612984768      -32.1520615911      -29.1877014897  TIP3      9757            0.0000000000
     54187      9957  TIP3      H2            -10.0626712696      -32.8573215832      -30.4181417723  TIP3      9757            0.0000000000
     54188      9958  TIP3      OH2            -6.9921012971      -30.4911715553      -25.9293408517  TIP3      9758            0.0000000000
     54189      9958  TIP3      H1             -7.7553776120      -30.2680903712      -25.3456043156  TIP3      9758            0.0000000000
     54190      9958  TIP3      H2             -6.5409822404      -31.1904509787      -25.4355429435  TIP3      9758            0.0000000000
     54191      9959  TIP3      OH2           -15.3710669914      -29.8434039342      -24.0179960591  TIP3      9759            0.0000000000
     54192      9959  TIP3      H1            -15.7229046494      -30.2246844053      -24.8636022050  TIP3      9759            0.0000000000
     54193      9959  TIP3      H2            -14.7988062149      -30.5575033018      -23.7344911199  TIP3      9759            0.0000000000
     54194      9960  TIP3      OH2           -15.1286140283      -30.8998294638      -20.4480289247  TIP3      9760            0.0000000000
     54195      9960  TIP3      H1            -14.5036301066      -30.8741783153      -21.1659128055  TIP3      9760            0.0000000000
     54196      9960  TIP3      H2            -14.6932749138      -30.4028165264      -19.7448785301  TIP3      9760            0.0000000000
     54197      9961  TIP3      OH2            -8.1251719813      -31.2964099232      -28.2740008962  TIP3      9761            0.0000000000
     54198      9961  TIP3      H1             -7.5673948104      -31.1187632447      -27.4790684615  TIP3      9761            0.0000000000
     54199      9961  TIP3      H2             -7.6742660190      -30.8015145393      -28.9960399805  TIP3      9761            0.0000000000
     54200      9962  TIP3      OH2           -10.4676062453      -24.6003666131      -24.7845836245  TIP3      9762            0.0000000000
     54201      9962  TIP3      H1             -9.9174439680      -24.2886337505      -24.0615160422  TIP3      9762            0.0000000000
     54202      9962  TIP3      H2            -10.9724700991      -23.8356678978      -25.0908927578  TIP3      9762            0.0000000000
     54203      9963  TIP3      OH2            -4.4233016589      -39.5495575500      -28.3853178117  TIP3      9763            0.0000000000
     54204      9963  TIP3      H1             -5.3300590061      -39.4175154230      -28.0679085060  TIP3      9763            0.0000000000
     54205      9963  TIP3      H2             -4.2019937579      -38.7232349748      -28.8299240151  TIP3      9763            0.0000000000
     54206      9964  TIP3      OH2           -16.4547959587      -30.7895486005      -26.3555394782  TIP3      9764            0.0000000000
     54207      9964  TIP3      H1            -16.7148183978      -30.0403446575      -26.9257431001  TIP3      9764            0.0000000000
     54208      9964  TIP3      H2            -17.0527883111      -31.4914167287      -26.6404151184  TIP3      9764            0.0000000000
     54209      9965  TIP3      OH2            -3.2941065585      -25.2155098563      -30.0010473941  TIP3      9765            0.0000000000
     54210      9965  TIP3      H1             -3.1226971609      -24.2701790430      -29.8486272727  TIP3      9765            0.0000000000
     54211      9965  TIP3      H2             -2.3686837764      -25.5265131729      -30.0201534528  TIP3      9765            0.0000000000
     54212      9966  TIP3      OH2           -20.5165143714      -25.6172676779      -20.7460617485  TIP3      9766            0.0000000000
     54213      9966  TIP3      H1            -19.5941826961      -25.6706437666      -20.5902753210  TIP3      9766            0.0000000000
     54214      9966  TIP3      H2            -20.7353805153      -24.8258517111      -20.2085925096  TIP3      9766            0.0000000000
     54215      9967  TIP3      OH2           -10.9345775341      -21.6600883004      -26.3600494471  TIP3      9767            0.0000000000
     54216      9967  TIP3      H1            -11.0440058495      -21.7443531027      -27.3271058065  TIP3      9767            0.0000000000
     54217      9967  TIP3      H2            -10.9307988679      -20.6940371037      -26.2378274907  TIP3      9767            0.0000000000
     54218      9968  TIP3      OH2           -17.2682007307      -22.8118000986      -24.5671412705  TIP3      9768            0.0000000000
     54219      9968  TIP3      H1            -17.1480274290      -23.1701807473      -23.6650995385  TIP3      9768            0.0000000000
     54220      9968  TIP3      H2            -18.1434520606      -23.1632818003      -24.7922605719  TIP3      9768            0.0000000000
     54221      9969  TIP3      OH2            -7.8746487360      -22.4530929768      -29.4027055447  TIP3      9769            0.0000000000
     54222      9969  TIP3      H1             -7.4179316360      -23.2059081923      -29.8412446282  TIP3      9769            0.0000000000
     54223      9969  TIP3      H2             -7.8392322474      -22.7152876737      -28.4573108043  TIP3      9769            0.0000000000
     54224      9970  TIP3      OH2            -8.1791751275      -22.5196032405      -26.6332446936  TIP3      9770            0.0000000000
     54225      9970  TIP3      H1             -9.1419002302      -22.4459775281      -26.4718978601  TIP3      9770            0.0000000000
     54226      9970  TIP3      H2             -7.9431051354      -23.2587130872      -26.0547155678  TIP3      9770            0.0000000000
     54227      9971  TIP3      OH2           -15.5589968716      -37.1645160568      -21.1382290971  TIP3      9771            0.0000000000
     54228      9971  TIP3      H1            -16.3112830661      -37.7745836153      -21.1019464418  TIP3      9771            0.0000000000
     54229      9971  TIP3      H2            -15.3155420828      -37.2253189291      -20.2199868961  TIP3      9771            0.0000000000
     54230      9972  TIP3      OH2            -6.6695662061      -30.2707270540      -30.4487473730  TIP3      9772            0.0000000000
     54231      9972  TIP3      H1             -6.6982005219      -30.4519116503      -31.4164668119  TIP3      9772            0.0000000000
     54232      9972  TIP3      H2             -5.8157648961      -29.8161212572      -30.4045515010  TIP3      9772            0.0000000000
     54233      9973  TIP3      OH2           -11.0530126445      -36.3763777922      -29.9290505276  TIP3      9773            0.0000000000
     54234      9973  TIP3      H1            -11.3918320874      -36.4231794288      -29.0201457766  TIP3      9773            0.0000000000
     54235      9973  TIP3      H2            -11.3943339622      -37.2352206558      -30.2548276671  TIP3      9773            0.0000000000
     54236      9974  TIP3      OH2           -15.3042889593      -33.4061401711      -24.5660515059  TIP3      9774            0.0000000000
     54237      9974  TIP3      H1            -16.2249314893      -33.7472513708      -24.6294470301  TIP3      9774            0.0000000000
     54238      9974  TIP3      H2            -14.9331004791      -33.8167986637      -25.3656763347  TIP3      9774            0.0000000000
     54239      9975  TIP3      OH2            -9.7856817886      -32.9722827478      -25.6993963730  TIP3      9775            0.0000000000
     54240      9975  TIP3      H1            -10.1775284290      -32.1698542221      -26.1040712731  TIP3      9775            0.0000000000
     54241      9975  TIP3      H2             -9.1023790556      -33.1821384563      -26.3645339363  TIP3      9775            0.0000000000
     54242      9976  TIP3      OH2            -8.8024503012      -33.5025973343      -22.8740139104  TIP3      9776            0.0000000000
     54243      9976  TIP3      H1             -9.0213417273      -32.9752803760      -23.6467704173  TIP3      9776            0.0000000000
     54244      9976  TIP3      H2             -8.6233868489      -34.3687839178      -23.2966618490  TIP3      9776            0.0000000000
     54245      9977  TIP3      OH2           -14.2732282901      -35.9584631510      -30.8339406752  TIP3      9777            0.0000000000
     54246      9977  TIP3      H1            -14.7228593775      -36.3942579509      -30.0829027931  TIP3      9777            0.0000000000
     54247      9977  TIP3      H2            -14.9774094243      -35.5298171590      -31.3263721620  TIP3      9777            0.0000000000
     54248      9978  TIP3      OH2           -20.9931347942      -36.2999293630      -23.7342858262  TIP3      9778            0.0000000000
     54249      9978  TIP3      H1            -20.3143613697      -36.1730250044      -23.0574583174  TIP3      9778            0.0000000000
     54250      9978  TIP3      H2            -20.5100498380      -36.6310089274      -24.5087255861  TIP3      9778            0.0000000000
     54251      9979  TIP3      OH2           -19.7383453570      -35.5566428567      -28.3752531670  TIP3      9779            0.0000000000
     54252      9979  TIP3      H1            -19.1946656765      -34.9342142025      -28.8930176066  TIP3      9779            0.0000000000
     54253      9979  TIP3      H2            -20.3995903893      -34.9242159138      -28.0173808458  TIP3      9779            0.0000000000
     54254      9980  TIP3      OH2           -12.7270848348      -35.9080191739      -23.4827954730  TIP3      9780            0.0000000000
     54255      9980  TIP3      H1            -13.6797652888      -35.9701004603      -23.2072433136  TIP3      9780            0.0000000000
     54256      9980  TIP3      H2            -12.2379707288      -36.1740816174      -22.6916934784  TIP3      9780            0.0000000000
     54257      9981  TIP3      OH2           -17.8733369386      -34.3611119509      -24.7379740917  TIP3      9781            0.0000000000
     54258      9981  TIP3      H1            -18.8136931487      -34.2517856040      -24.9688662911  TIP3      9781            0.0000000000
     54259      9981  TIP3      H2            -17.6424341965      -35.2606816137      -25.0188082785  TIP3      9781            0.0000000000
     54260      9982  TIP3      OH2           -14.3006531920      -34.3624271660      -27.0055414471  TIP3      9782            0.0000000000
     54261      9982  TIP3      H1            -13.3414108065      -34.2568502818      -26.8587843371  TIP3      9782            0.0000000000
     54262      9982  TIP3      H2            -14.5388853019      -33.6796505770      -27.6601483636  TIP3      9782            0.0000000000
     54263      9983  TIP3      OH2           -15.5847205645      -33.1728795015      -29.4067513555  TIP3      9783            0.0000000000
     54264      9983  TIP3      H1            -16.1189906283      -33.5537810842      -30.1238272855  TIP3      9783            0.0000000000
     54265      9983  TIP3      H2            -14.7668587908      -32.9698672552      -29.8860360956  TIP3      9783            0.0000000000
     54266      9984  TIP3      OH2           -16.5061468206      -37.0833579365      -25.2044028719  TIP3      9784            0.0000000000
     54267      9984  TIP3      H1            -16.7829491873      -38.0083188559      -25.1608725336  TIP3      9784            0.0000000000
     54268      9984  TIP3      H2            -15.6734087396      -37.1232342477      -25.6983642784  TIP3      9784            0.0000000000
     54269      9985  TIP3      OH2           -12.2347086080      -28.6713996605      -27.4799109965  TIP3      9785            0.0000000000
     54270      9985  TIP3      H1            -13.0381168150      -29.1159412264      -27.8333575828  TIP3      9785            0.0000000000
     54271      9985  TIP3      H2            -12.4801070886      -28.5383709076      -26.5402255767  TIP3      9785            0.0000000000
     54272      9986  TIP3      OH2            -8.4188473985      -35.8488037607      -29.2720434374  TIP3      9786            0.0000000000
     54273      9986  TIP3      H1             -9.3618732939      -35.6711791918      -29.4566197646  TIP3      9786            0.0000000000
     54274      9986  TIP3      H2             -8.0632726698      -34.9806483002      -28.9755028673  TIP3      9786            0.0000000000
     54275      9987  TIP3      OH2            -7.6720099872      -33.9202617892      -27.7170284327  TIP3      9787            0.0000000000
     54276      9987  TIP3      H1             -6.7980926922      -34.0259084211      -27.2841137026  TIP3      9787            0.0000000000
     54277      9987  TIP3      H2             -7.5775301325      -33.0800467163      -28.1923472558  TIP3      9787            0.0000000000
     54278      9988  TIP3      OH2           -10.1480713844      -27.1759577634      -28.4575414853  TIP3      9788            0.0000000000
     54279      9988  TIP3      H1            -10.4912811056      -26.3313982111      -28.0991226399  TIP3      9788            0.0000000000
     54280      9988  TIP3      H2            -10.8765189571      -27.7951828538      -28.2349327600  TIP3      9788            0.0000000000
     54281      9989  TIP3      OH2            -2.7757123922      -33.7716262507      -27.9111096899  TIP3      9789            0.0000000000
     54282      9989  TIP3      H1             -3.3332896227      -34.0699762799      -28.6559213846  TIP3      9789            0.0000000000
     54283      9989  TIP3      H2             -2.6951136782      -32.8243489054      -28.1673424437  TIP3      9789            0.0000000000
     54284      9990  TIP3      OH2            -4.5188621308      -24.9431330083      -27.5125737224  TIP3      9790            0.0000000000
     54285      9990  TIP3      H1             -4.8522661632      -25.7817477044      -27.1725644320  TIP3      9790            0.0000000000
     54286      9990  TIP3      H2             -4.1625223466      -25.1603324456      -28.3903621940  TIP3      9790            0.0000000000
     54287      9991  TIP3      OH2           -14.7774129318      -25.7815139760      -24.2740748729  TIP3      9791            0.0000000000
     54288      9991  TIP3      H1            -14.2585044840      -25.0000342701      -24.5304714893  TIP3      9791            0.0000000000
     54289      9991  TIP3      H2            -15.6176493556      -25.5533329628      -24.6829486472  TIP3      9791            0.0000000000
     54290      9992  TIP3      OH2           -18.9903431265      -30.9646194507      -29.7359324278  TIP3      9792            0.0000000000
     54291      9992  TIP3      H1            -18.4121869704      -30.2962572630      -29.3241795792  TIP3      9792            0.0000000000
     54292      9992  TIP3      H2            -19.8796762640      -30.6466777527      -29.4874767656  TIP3      9792            0.0000000000
     54293      9993  TIP3      OH2           -13.3450514618      -28.1515705684      -24.8227291265  TIP3      9793            0.0000000000
     54294      9993  TIP3      H1            -13.6264146399      -27.2258976624      -24.7021372393  TIP3      9793            0.0000000000
     54295      9993  TIP3      H2            -14.0790868685      -28.6023413144      -24.3672857960  TIP3      9793            0.0000000000
     54296      9994  TIP3      OH2           -14.6319154236      -23.1241789110      -25.2406397483  TIP3      9794            0.0000000000
     54297      9994  TIP3      H1            -15.6083173242      -22.9977363064      -25.1698820789  TIP3      9794            0.0000000000
     54298      9994  TIP3      H2            -14.3141165296      -22.2689629517      -24.8936736290  TIP3      9794            0.0000000000
     54299      9995  TIP3      OH2            -7.0270392901      -26.8695381873      -29.6672073921  TIP3      9795            0.0000000000
     54300      9995  TIP3      H1             -6.7322892624      -27.3451681669      -28.8636785975  TIP3      9795            0.0000000000
     54301      9995  TIP3      H2             -7.9805572682      -27.0559158266      -29.5873072698  TIP3      9795            0.0000000000
     54302      9996  TIP3      OH2            -2.5652275669      -22.5201950209      -29.4116162562  TIP3      9796            0.0000000000
     54303      9996  TIP3      H1             -1.8779097195      -21.8555625346      -29.6201078646  TIP3      9796            0.0000000000
     54304      9996  TIP3      H2             -3.2807351057      -21.9089022542      -29.1284572525  TIP3      9796            0.0000000000
     54305      9997  TIP3      OH2            -6.2504151756      -28.2316142289      -27.4316283039  TIP3      9797            0.0000000000
     54306      9997  TIP3      H1             -6.4953460514      -29.0195767952      -26.9020697899  TIP3      9797            0.0000000000
     54307      9997  TIP3      H2             -5.2948676116      -28.2086329531      -27.2619415982  TIP3      9797            0.0000000000
     54308      9998  TIP3      OH2           -12.8990091141      -25.8010128364      -31.1706857520  TIP3      9798            0.0000000000
     54309      9998  TIP3      H1            -12.8016086600      -26.5642448475      -31.7625714836  TIP3      9798            0.0000000000
     54310      9998  TIP3      H2            -13.3439796446      -26.2320556879      -30.4087039701  TIP3      9798            0.0000000000
     54311      9999  TIP3      OH2           -14.1313588029      -26.2749187896      -28.7136590875  TIP3      9799            0.0000000000
     54312      9999  TIP3      H1            -13.8594808222      -26.7857398560      -27.9406399721  TIP3      9799            0.0000000000
     54313      9999  TIP3      H2            -14.0385155986      -25.3468755286      -28.3970975778  TIP3      9799            0.0000000000
     54314     10000  TIP3      OH2           -17.5856066964      -29.0309956177      -28.2463352626  TIP3      9800            0.0000000000
     54315     10000  TIP3      H1            -18.2990827511      -28.6387201947      -27.7047829509  TIP3      9800            0.0000000000
     54316     10000  TIP3      H2            -17.0798841351      -28.2480277751      -28.5300730753  TIP3      9800            0.0000000000
     54317     10001  TIP3      OH2            -8.9202793566      -36.8224654082      -26.8321833252  TIP3      9801            0.0000000000
     54318     10001  TIP3      H1             -8.7958464593      -36.2804075271      -27.6400581185  TIP3      9801            0.0000000000
     54319     10001  TIP3      H2             -8.4534702289      -36.2827527463      -26.1658263051  TIP3      9801            0.0000000000
     54320     10002  TIP3      OH2           -11.3199724602      -24.6041338604      -28.0103025498  TIP3      9802            0.0000000000
     54321     10002  TIP3      H1            -12.1456537606      -24.0805156642      -27.9587606549  TIP3      9802            0.0000000000
     54322     10002  TIP3      H2            -10.7848435464      -24.0623031457      -28.6087025181  TIP3      9802            0.0000000000
     54323     10003  TIP3      OH2           -11.8059323906      -34.9887767450      -26.0022008617  TIP3      9803            0.0000000000
     54324     10003  TIP3      H1            -10.9830275887      -34.4666361279      -25.9359767618  TIP3      9803            0.0000000000
     54325     10003  TIP3      H2            -12.0499524490      -35.1999286736      -25.0786020682  TIP3      9803            0.0000000000
     54326     10004  TIP3      OH2           -11.0039372681      -37.9422822758      -25.0836557246  TIP3      9804            0.0000000000
     54327     10004  TIP3      H1            -11.2473890195      -37.2599352387      -24.4380313780  TIP3      9804            0.0000000000
     54328     10004  TIP3      H2            -10.2791349510      -37.4838962345      -25.5678518879  TIP3      9804            0.0000000000
     54329     10005  TIP3      OH2           -13.9199140711      -23.5789369276      -27.9953873859  TIP3      9805            0.0000000000
     54330     10005  TIP3      H1            -13.8294301682      -22.7632758127      -28.5462730571  TIP3      9805            0.0000000000
     54331     10005  TIP3      H2            -14.1871697713      -23.2100085876      -27.1234221846  TIP3      9805            0.0000000000
     54332     10006  TIP3      OH2           -15.3044109071      -36.8065642905      -28.4370113103  TIP3      9806            0.0000000000
     54333     10006  TIP3      H1            -15.3272874214      -35.9221572104      -28.0222293963  TIP3      9806            0.0000000000
     54334     10006  TIP3      H2            -14.4040123047      -37.0799625754      -28.1638627385  TIP3      9806            0.0000000000
     54335     10007  TIP3      OH2           -17.0434184441      -26.4165656996      -29.3765382282  TIP3      9807            0.0000000000
     54336     10007  TIP3      H1            -16.3770270122      -25.7896820222      -29.0583382645  TIP3      9807            0.0000000000
     54337     10007  TIP3      H2            -16.5182752952      -26.8804111065      -30.0595257060  TIP3      9807            0.0000000000
     54338     10008  TIP3      OH2           -18.6991544968      -33.7414993601      -30.2636053252  TIP3      9808            0.0000000000
     54339     10008  TIP3      H1            -18.6696315510      -32.7928436729      -30.0053409337  TIP3      9808            0.0000000000
     54340     10008  TIP3      H2            -19.6124999364      -33.8958906440      -30.5035940195  TIP3      9808            0.0000000000
     54341     10009  TIP3      OH2            -5.3427673048      -23.1317434886      -20.3391965059  TIP3      9809            0.0000000000
     54342     10009  TIP3      H1             -5.4666299949      -22.4048978932      -20.9637865752  TIP3      9809            0.0000000000
     54343     10009  TIP3      H2             -4.4446335995      -22.9936229565      -20.0365827502  TIP3      9809            0.0000000000
     54344     10010  TIP3      OH2           -17.8620021856      -38.8417931155      -21.5391918881  TIP3      9810            0.0000000000
     54345     10010  TIP3      H1            -18.1126166392      -38.7979987674      -22.4907108050  TIP3      9810            0.0000000000
     54346     10010  TIP3      H2            -18.2553686162      -39.6885640877      -21.3422947658  TIP3      9810            0.0000000000
     54347     10011  TIP3      OH2           -18.9255775068      -25.0607522855      -25.3262316183  TIP3      9811            0.0000000000
     54348     10011  TIP3      H1            -19.7693619828      -24.5910435709      -25.4006660031  TIP3      9811            0.0000000000
     54349     10011  TIP3      H2            -18.4551696532      -24.5840242018      -26.0341414709  TIP3      9811            0.0000000000
     54350     10012  TIP3      OH2           -10.9044786361      -23.9509124414      -31.0388185405  TIP3      9812            0.0000000000
     54351     10012  TIP3      H1            -11.5996588874      -24.6107793766      -30.8226391659  TIP3      9812            0.0000000000
     54352     10012  TIP3      H2            -10.1884984477      -24.5491033529      -31.2959793159  TIP3      9812            0.0000000000
     54353     10013  TIP3      OH2            -6.3479962038      -24.2073816497      -30.8633124717  TIP3      9813            0.0000000000
     54354     10013  TIP3      H1             -6.0520958257      -24.9829437151      -30.3587168770  TIP3      9813            0.0000000000
     54355     10013  TIP3      H2             -5.5852731256      -23.9815472456      -31.4154659750  TIP3      9813            0.0000000000
     54356     10014  TIP3      OH2           -15.4597453259      -28.2650619892      -31.0444948917  TIP3      9814            0.0000000000
     54357     10014  TIP3      H1            -15.3208408872      -29.0261601622      -30.4605513691  TIP3      9814            0.0000000000
     54358     10014  TIP3      H2            -14.7116415223      -28.3847571840      -31.6621493853  TIP3      9814            0.0000000000
     54359     10015  TIP3      OH2           -10.0304501577      -27.1561699585      -31.2664182769  TIP3      9815            0.0000000000
     54360     10015  TIP3      H1            -10.3008019275      -27.0763776072      -30.3380697141  TIP3      9815            0.0000000000
     54361     10015  TIP3      H2            -10.2192406117      -28.1138139504      -31.4118417613  TIP3      9815            0.0000000000
     54362     10016  TIP3      OH2           -14.2542482475      -30.2460304247      -28.6233293734  TIP3      9816            0.0000000000
     54363     10016  TIP3      H1            -14.7693830141      -30.7843171707      -28.0055884595  TIP3      9816            0.0000000000
     54364     10016  TIP3      H2            -13.9548889772      -30.9205819700      -29.2735748331  TIP3      9816            0.0000000000
     54365     10017  TIP3      OH2           -13.1813370341      -32.0264639482      -30.4203618996  TIP3      9817            0.0000000000
     54366     10017  TIP3      H1            -13.3271885925      -32.1152088984      -31.3843163598  TIP3      9817            0.0000000000
     54367     10017  TIP3      H2            -12.2057704030      -31.9729359716      -30.3490901904  TIP3      9817            0.0000000000
     54368     10018  TIP3      OH2            -3.8531880137      -29.7080337020      -31.0020798889  TIP3      9818            0.0000000000
     54369     10018  TIP3      H1             -4.0441439000      -30.0854871868      -31.8771915152  TIP3      9818            0.0000000000
     54370     10018  TIP3      H2             -3.7647185112      -28.7436866401      -31.1918305334  TIP3      9818            0.0000000000
     54371     10019  TIP3      OH2           -13.3511005970      -21.3202575270      -29.3347221796  TIP3      9819            0.0000000000
     54372     10019  TIP3      H1            -12.3845708084      -21.2399349209      -29.2691492051  TIP3      9819            0.0000000000
     54373     10019  TIP3      H2            -13.4981976362      -20.7227994711      -30.0785504340  TIP3      9819            0.0000000000
     54374     10020  TIP3      OH2           -19.8000586765      -26.7528963213      -29.8676005196  TIP3      9820            0.0000000000
     54375     10020  TIP3      H1            -18.8328552385      -26.6566795172      -29.6890787583  TIP3      9820            0.0000000000
     54376     10020  TIP3      H2            -19.7493974998      -27.3942134954      -30.6159815188  TIP3      9820            0.0000000000
     54377     10021  TIP3      OH2           -21.0148739224      -21.3546945092      -24.9359873237  TIP3      9821            0.0000000000
     54378     10021  TIP3      H1            -21.7187637288      -21.8600937993      -25.4013732388  TIP3      9821            0.0000000000
     54379     10021  TIP3      H2            -20.7351541659      -21.9879142516      -24.2473111516  TIP3      9821            0.0000000000
     54380     10022  TIP3      OH2           -20.1316576498      -23.2826198899      -23.0343554903  TIP3      9822            0.0000000000
     54381     10022  TIP3      H1            -20.5872109329      -24.1056980476      -22.8214932088  TIP3      9822            0.0000000000
     54382     10022  TIP3      H2            -20.0390192395      -22.8583476193      -22.1640347880  TIP3      9822            0.0000000000
     54383     10023  TIP3      OH2            -3.3164541837      -28.7873928133      -27.0496730574  TIP3      9823            0.0000000000
     54384     10023  TIP3      H1             -2.4511703288      -28.3957264842      -26.8556030267  TIP3      9823            0.0000000000
     54385     10023  TIP3      H2             -3.3345604276      -29.5027502597      -26.3751805648  TIP3      9823            0.0000000000
     54386     10024  TIP3      OH2            -2.9757896517      -30.6855529018      -25.1481782467  TIP3      9824            0.0000000000
     54387     10024  TIP3      H1             -3.6923013632      -31.2364306400      -24.7701084776  TIP3      9824            0.0000000000
     54388     10024  TIP3      H2             -2.3517969232      -30.5756175272      -24.3976180505  TIP3      9824            0.0000000000
     54389     10025  TIP3      OH2            -2.6602586693      -30.8875258448      -28.7708624725  TIP3      9825            0.0000000000
     54390     10025  TIP3      H1             -3.2274057412      -30.5476111080      -29.4952209159  TIP3      9825            0.0000000000
     54391     10025  TIP3      H2             -2.7621379540      -30.1725396716      -28.1147764325  TIP3      9825            0.0000000000
     54392     10026  TIP3      OH2            -4.2797178721      -33.6581081097      -30.2538650906  TIP3      9826            0.0000000000
     54393     10026  TIP3      H1             -4.2138899285      -32.9923677325      -30.9490207098  TIP3      9826            0.0000000000
     54394     10026  TIP3      H2             -4.4711812592      -34.4820604288      -30.7456891652  TIP3      9826            0.0000000000
     54395     10027  TIP3      OH2            -5.1283529471      -32.2485947412      -24.5517705547  TIP3      9827            0.0000000000
     54396     10027  TIP3      H1             -5.2855968945      -33.2034081706      -24.6538106100  TIP3      9827            0.0000000000
     54397     10027  TIP3      H2             -5.5098429657      -32.0554310737      -23.7012120765  TIP3      9827            0.0000000000
     54398     10028  TIP3      OH2           -20.0886240017      -30.0708590835      -20.5568933085  TIP3      9828            0.0000000000
     54399     10028  TIP3      H1            -19.9869221778      -30.2779664793      -21.5084080528  TIP3      9828            0.0000000000
     54400     10028  TIP3      H2            -19.2263246035      -30.3042959929      -20.2279804302  TIP3      9828            0.0000000000
     54401     10029  TIP3      OH2            -5.0326189556      -36.1934782489      -31.0981285696  TIP3      9829            0.0000000000
     54402     10029  TIP3      H1             -4.4405556071      -36.6571752041      -30.4745595940  TIP3      9829            0.0000000000
     54403     10029  TIP3      H2             -5.8930014437      -36.6429270568      -30.9955096549  TIP3      9829            0.0000000000
     54404     10030  TIP3      OH2            -5.4900063766      -34.6212490307      -26.1750959903  TIP3      9830            0.0000000000
     54405     10030  TIP3      H1             -5.1801237748      -35.5450388785      -26.0287229848  TIP3      9830            0.0000000000
     54406     10030  TIP3      H2             -4.6686459055      -34.2344336106      -26.5080696655  TIP3      9830            0.0000000000
     54407     10031  TIP3      OH2            -4.8247080705      -37.3602961475      -26.0744370245  TIP3      9831            0.0000000000
     54408     10031  TIP3      H1             -4.6212131643      -37.8315805388      -25.2340461637  TIP3      9831            0.0000000000
     54409     10031  TIP3      H2             -5.3864748176      -38.0151801527      -26.5439685580  TIP3      9831            0.0000000000
     54410     10032  TIP3      OH2            -2.9721490886      -37.3097139407      -29.5133665730  TIP3      9832            0.0000000000
     54411     10032  TIP3      H1             -2.5842574347      -38.0427168674      -30.0545003569  TIP3      9832            0.0000000000
     54412     10032  TIP3      H2             -2.2592442614      -36.6595608500      -29.4912355057  TIP3      9832            0.0000000000
     54413     10033  TIP3      OH2           -20.6496117227      -37.2788805593      -26.4022201481  TIP3      9833            0.0000000000
     54414     10033  TIP3      H1            -21.5913752671      -37.1203212659      -26.5825162279  TIP3      9833            0.0000000000
     54415     10033  TIP3      H2            -20.2364256964      -36.8298485881      -27.1609973266  TIP3      9833            0.0000000000
     54416     10034  TIP3      OH2            -5.9299357725      -22.3564098794      -24.4532048797  TIP3      9834            0.0000000000
     54417     10034  TIP3      H1             -5.2637830501      -22.6563833573      -25.1042989952  TIP3      9834            0.0000000000
     54418     10034  TIP3      H2             -5.3926731640      -21.8693986862      -23.8203707416  TIP3      9834            0.0000000000
     54419     10035  TIP3      OH2           -16.6016041706      -23.8959466391      -22.1448991447  TIP3      9835            0.0000000000
     54420     10035  TIP3      H1            -16.7529306444      -24.7768123852      -21.8400680957  TIP3      9835            0.0000000000
     54421     10035  TIP3      H2            -15.8189232826      -23.6212370124      -21.6144850146  TIP3      9835            0.0000000000
     54422     10036  TIP3      OH2           -14.0513665083      -23.4083354519      -21.2176157631  TIP3      9836            0.0000000000
     54423     10036  TIP3      H1            -13.8208363404      -24.3038956525      -21.4890638629  TIP3      9836            0.0000000000
     54424     10036  TIP3      H2            -14.0008144704      -23.4212142833      -20.2498829764  TIP3      9836            0.0000000000
     54425     10037  TIP3      OH2           -10.6714758715      -37.6959188326      -22.1975186241  TIP3      9837            0.0000000000
     54426     10037  TIP3      H1            -11.1902252833      -38.3679247395      -21.7350755747  TIP3      9837            0.0000000000
     54427     10037  TIP3      H2             -9.9772743354      -38.2173921664      -22.6247435709  TIP3      9837            0.0000000000
     54428     10038  TIP3      OH2            -3.8031876736      -38.4013084122      -23.7400230450  TIP3      9838            0.0000000000
     54429     10038  TIP3      H1             -3.1272654580      -39.0423783814      -24.0394409497  TIP3      9838            0.0000000000
     54430     10038  TIP3      H2             -3.2788642929      -37.5831049422      -23.6300843903  TIP3      9838            0.0000000000
     54431     10039  TIP3      OH2           -18.2387489620      -39.1418397678      -24.2425785132  TIP3      9839            0.0000000000
     54432     10039  TIP3      H1            -19.0073818506      -39.3094264658      -24.8050748787  TIP3      9839            0.0000000000
     54433     10039  TIP3      H2            -17.7394485170      -39.9710472106      -24.3098521752  TIP3      9839            0.0000000000
     54434     10040  TIP3      OH2           -19.3457030248      -39.2941144890      -28.4011096825  TIP3      9840            0.0000000000
     54435     10040  TIP3      H1            -18.9674824199      -38.6945053773      -29.0583043946  TIP3      9840            0.0000000000
     54436     10040  TIP3      H2            -20.0292667946      -38.7328204884      -28.0160574914  TIP3      9840            0.0000000000
     54437     10041  TIP3      OH2           -13.8407039486      -38.8184826040      -24.5350833757  TIP3      9841            0.0000000000
     54438     10041  TIP3      H1            -12.8781054845      -38.6965926813      -24.6353496380  TIP3      9841            0.0000000000
     54439     10041  TIP3      H2            -13.8427744376      -39.2479813289      -23.6975266992  TIP3      9841            0.0000000000
     54440     10042  TIP3      OH2            -6.7760430037      -39.0503095315      -27.1052747855  TIP3      9842            0.0000000000
     54441     10042  TIP3      H1             -7.5382433007      -38.4767743780      -27.2696322312  TIP3      9842            0.0000000000
     54442     10042  TIP3      H2             -7.1022195370      -39.9540953300      -26.9914590489  TIP3      9842            0.0000000000
     54443     10043  TIP3      OH2           -19.5129603173      -23.3843297426      -27.4710486268  TIP3      9843            0.0000000000
     54444     10043  TIP3      H1            -20.1660439436      -23.3961852026      -28.1956186392  TIP3      9843            0.0000000000
     54445     10043  TIP3      H2            -19.5116213494      -22.4282427867      -27.2987516429  TIP3      9843            0.0000000000
     54446     10044  TIP3      OH2           -17.6229263364      -37.4338115641      -30.0417412292  TIP3      9844            0.0000000000
     54447     10044  TIP3      H1            -17.0417597891      -38.0165297134      -30.5547108825  TIP3      9844            0.0000000000
     54448     10044  TIP3      H2            -16.9823072861      -37.0789859165      -29.3834955137  TIP3      9844            0.0000000000
     54449     10045  TIP3      OH2           -12.6307714747      -37.1488117376      -27.5419354372  TIP3      9845            0.0000000000
     54450     10045  TIP3      H1            -12.2980053780      -37.7200322732      -26.8318599793  TIP3      9845            0.0000000000
     54451     10045  TIP3      H2            -12.5313040921      -36.2760449478      -27.1047303501  TIP3      9845            0.0000000000
     54452     10046  TIP3      OH2           -10.6368116111      -22.0698058587      -29.1463901564  TIP3      9846            0.0000000000
     54453     10046  TIP3      H1             -9.7189002805      -21.8465044849      -29.3692742873  TIP3      9846            0.0000000000
     54454     10046  TIP3      H2            -10.8577230267      -22.5931174209      -29.9462836876  TIP3      9846            0.0000000000
     54455     10047  TIP3      OH2            -3.9586955167      -22.5631739634      -26.4172701432  TIP3      9847            0.0000000000
     54456     10047  TIP3      H1             -4.1411527558      -23.3487723821      -26.9869074394  TIP3      9847            0.0000000000
     54457     10047  TIP3      H2             -4.0088555130      -21.8378259992      -27.0734072120  TIP3      9847            0.0000000000
     54458     10048  TIP3      OH2           -17.7189829845      -22.3949429874      -30.5400530693  TIP3      9848            0.0000000000
     54459     10048  TIP3      H1            -17.9763212422      -22.1372108841      -29.6416496016  TIP3      9848            0.0000000000
     54460     10048  TIP3      H2            -16.9354666052      -22.9587402820      -30.3845451124  TIP3      9848            0.0000000000
     54461     10049  TIP3      OH2             9.7566768968      -29.9289478514      -24.3429085797  TIP3      9849            0.0000000000
     54462     10049  TIP3      H1              9.7439621718      -28.9563842409      -24.4493563998  TIP3      9849            0.0000000000
     54463     10049  TIP3      H2              9.0497888233      -30.2132493048      -24.9482422328  TIP3      9849            0.0000000000
     54464     10050  TIP3      OH2             8.6589167741      -30.6911557330      -20.8341148054  TIP3      9850            0.0000000000
     54465     10050  TIP3      H1              8.5894651004      -31.3318097073      -20.1188788139  TIP3      9850            0.0000000000
     54466     10050  TIP3      H2              8.4036328736      -31.1613768361      -21.6323310679  TIP3      9850            0.0000000000
     54467     10051  TIP3      OH2            -1.5072492066      -33.0189130065      -25.2989602040  TIP3      9851            0.0000000000
     54468     10051  TIP3      H1             -1.8815621651      -32.1271890530      -25.4154358980  TIP3      9851            0.0000000000
     54469     10051  TIP3      H2             -2.0506211205      -33.5452975421      -25.8983156641  TIP3      9851            0.0000000000
     54470     10052  TIP3      OH2            -0.7811124231      -30.7474181739      -23.1808037181  TIP3      9852            0.0000000000
     54471     10052  TIP3      H1             -0.5792645146      -31.5716188189      -22.6993593844  TIP3      9852            0.0000000000
     54472     10052  TIP3      H2             -0.0743543835      -30.7060392420      -23.8291256984  TIP3      9852            0.0000000000
     54473     10053  TIP3      OH2             9.4339623675      -22.6182983814      -22.4259082966  TIP3      9853            0.0000000000
     54474     10053  TIP3      H1             10.0984284786      -23.3052247795      -22.6408537426  TIP3      9853            0.0000000000
     54475     10053  TIP3      H2              9.2479452914      -22.8666486997      -21.5039726245  TIP3      9853            0.0000000000
     54476     10054  TIP3      OH2             7.0229443606      -28.1821778482      -20.5405589202  TIP3      9854            0.0000000000
     54477     10054  TIP3      H1              7.3744775296      -28.9329276223      -21.0134560072  TIP3      9854            0.0000000000
     54478     10054  TIP3      H2              7.6614266259      -28.1309161087      -19.8116430117  TIP3      9854            0.0000000000
     54479     10055  TIP3      OH2            11.0338438852      -35.7325436988      -24.5943118712  TIP3      9855            0.0000000000
     54480     10055  TIP3      H1             11.5886945765      -35.9369401943      -23.8091174366  TIP3      9855            0.0000000000
     54481     10055  TIP3      H2             11.5581697080      -35.0415617166      -25.0176499013  TIP3      9855            0.0000000000
     54482     10056  TIP3      OH2            -0.0370552168      -33.3135748790      -22.1375114734  TIP3      9856            0.0000000000
     54483     10056  TIP3      H1              0.5270242214      -33.9358228365      -21.6946795504  TIP3      9856            0.0000000000
     54484     10056  TIP3      H2             -0.0452452535      -33.6357191133      -23.0583558121  TIP3      9856            0.0000000000
     54485     10057  TIP3      OH2             9.4840534048      -27.3289877589      -25.2826420134  TIP3      9857            0.0000000000
     54486     10057  TIP3      H1              9.1941823601      -27.6327510712      -26.1550839801  TIP3      9857            0.0000000000
     54487     10057  TIP3      H2              9.1310749369      -26.4092480226      -25.2447850420  TIP3      9857            0.0000000000
     54488     10058  TIP3      OH2            12.7972665039      -36.2578251349      -22.5138716324  TIP3      9858            0.0000000000
     54489     10058  TIP3      H1             12.6063270198      -37.0643711037      -21.9920386523  TIP3      9858            0.0000000000
     54490     10058  TIP3      H2             13.4852417648      -35.8570893448      -21.9618480829  TIP3      9858            0.0000000000
     54491     10059  TIP3      OH2            -0.7759010389      -27.5815489455      -26.9746295169  TIP3      9859            0.0000000000
     54492     10059  TIP3      H1             -1.0306468607      -27.2478184827      -27.8527287870  TIP3      9859            0.0000000000
     54493     10059  TIP3      H2             -0.7063088269      -26.7493769923      -26.4679563752  TIP3      9859            0.0000000000
     54494     10060  TIP3      OH2             6.0763263596      -39.4413610520      -21.3366261301  TIP3      9860            0.0000000000
     54495     10060  TIP3      H1              6.1044059975      -40.4194397790      -21.2135685397  TIP3      9860            0.0000000000
     54496     10060  TIP3      H2              5.2068990108      -39.2540440617      -21.0187365836  TIP3      9860            0.0000000000
     54497     10061  TIP3      OH2            11.1130555434      -24.1603127783      -23.6135657111  TIP3      9861            0.0000000000
     54498     10061  TIP3      H1             11.5269765470      -24.8368971989      -24.1733972303  TIP3      9861            0.0000000000
     54499     10061  TIP3      H2             11.5084285508      -23.3386616139      -23.9845707811  TIP3      9861            0.0000000000
     54500     10062  TIP3      OH2            12.3234957368      -26.1995492350      -25.0984619485  TIP3      9862            0.0000000000
     54501     10062  TIP3      H1             11.9831341600      -26.8567206143      -25.7349115184  TIP3      9862            0.0000000000
     54502     10062  TIP3      H2             12.2872296177      -26.6726495008      -24.2723829915  TIP3      9862            0.0000000000
     54503     10063  TIP3      OH2             8.3983780163      -30.7046385873      -26.8371457860  TIP3      9863            0.0000000000
     54504     10063  TIP3      H1              7.7130125540      -30.1325975831      -27.2299253939  TIP3      9863            0.0000000000
     54505     10063  TIP3      H2              9.1063946902      -30.6180002187      -27.5053276525  TIP3      9863            0.0000000000
     54506     10064  TIP3      OH2             8.4890090542      -32.1426402280      -29.8513394028  TIP3      9864            0.0000000000
     54507     10064  TIP3      H1              9.1920595211      -32.1583663768      -29.1818308687  TIP3      9864            0.0000000000
     54508     10064  TIP3      H2              8.8069137305      -32.8489021542      -30.4322137110  TIP3      9864            0.0000000000
     54509     10065  TIP3      OH2            11.8565030611      -30.4865706113      -25.9102409335  TIP3      9865            0.0000000000
     54510     10065  TIP3      H1             11.0770990803      -30.3076917737      -25.3345101952  TIP3      9865            0.0000000000
     54511     10065  TIP3      H2             12.3242504046      -31.1980261269      -25.4361268500  TIP3      9865            0.0000000000
     54512     10066  TIP3      OH2             4.8057897396      -26.4125049786      -21.3364545766  TIP3      9866            0.0000000000
     54513     10066  TIP3      H1              4.7971575454      -26.9514621702      -22.1248160669  TIP3      9866            0.0000000000
     54514     10066  TIP3      H2              5.5674770888      -26.7798707199      -20.8476051561  TIP3      9866            0.0000000000
     54515     10067  TIP3      OH2            10.7198849030      -31.2974876911      -28.2756160108  TIP3      9867            0.0000000000
     54516     10067  TIP3      H1             11.2816370294      -31.1219906552      -27.4804643331  TIP3      9867            0.0000000000
     54517     10067  TIP3      H2             11.1736612353      -30.8029537001      -28.9949350589  TIP3      9867            0.0000000000
     54518     10068  TIP3      OH2             8.4805387654      -24.5792078001      -24.8458434820  TIP3      9868            0.0000000000
     54519     10068  TIP3      H1              8.8453759963      -24.2867498123      -23.9960420627  TIP3      9868            0.0000000000
     54520     10068  TIP3      H2              7.8767198893      -23.8492367434      -25.0391384159  TIP3      9868            0.0000000000
     54521     10069  TIP3      OH2            14.4425603401      -39.5482507345      -28.3694171843  TIP3      9869            0.0000000000
     54522     10069  TIP3      H1             13.5233712095      -39.4229156998      -28.0908255341  TIP3      9869            0.0000000000
     54523     10069  TIP3      H2             14.6582051579      -38.7267422098      -28.8337464545  TIP3      9869            0.0000000000
     54524     10070  TIP3      OH2             2.4132542507      -30.8017650009      -26.4010115805  TIP3      9870            0.0000000000
     54525     10070  TIP3      H1              2.1343641236      -30.0291778504      -26.9320428683  TIP3      9870            0.0000000000
     54526     10070  TIP3      H2              1.7807164635      -31.4808512038      -26.6400284614  TIP3      9870            0.0000000000
     54527     10071  TIP3      OH2            15.5677560453      -25.2184455458      -30.0096544606  TIP3      9871            0.0000000000
     54528     10071  TIP3      H1             15.7399708833      -24.2715672377      -29.8484781102  TIP3      9871            0.0000000000
     54529     10071  TIP3      H2             16.4912505101      -25.5403114784      -30.0097511094  TIP3      9871            0.0000000000
     54530     10072  TIP3      OH2             7.9226743126      -21.6464741682      -26.3725403516  TIP3      9872            0.0000000000
     54531     10072  TIP3      H1              7.8052118531      -21.7164152985      -27.3332451724  TIP3      9872            0.0000000000
     54532     10072  TIP3      H2              7.9152674405      -20.6876383938      -26.2002973323  TIP3      9872            0.0000000000
     54533     10073  TIP3      OH2             1.5870146591      -22.8144667960      -24.6006535100  TIP3      9873            0.0000000000
     54534     10073  TIP3      H1              1.7218831846      -23.1780860933      -23.6968578493  TIP3      9873            0.0000000000
     54535     10073  TIP3      H2              0.7096509462      -23.1816089856      -24.8055007885  TIP3      9873            0.0000000000
     54536     10074  TIP3      OH2            10.9754368086      -22.4448173444      -29.3965625680  TIP3      9874            0.0000000000
     54537     10074  TIP3      H1             11.4383390490      -23.1992173244      -29.8148198200  TIP3      9874            0.0000000000
     54538     10074  TIP3      H2             11.0121807138      -22.7009726292      -28.4495345076  TIP3      9874            0.0000000000
     54539     10075  TIP3      OH2            10.6790167314      -22.5274841921      -26.6470632880  TIP3      9875            0.0000000000
     54540     10075  TIP3      H1              9.7235655798      -22.4330810394      -26.4505460134  TIP3      9875            0.0000000000
     54541     10075  TIP3      H2             10.9105437333      -23.2509397797      -26.0468265977  TIP3      9875            0.0000000000
     54542     10076  TIP3      OH2            12.1725730544      -30.2176910318      -30.4368060182  TIP3      9876            0.0000000000
     54543     10076  TIP3      H1             12.1701132046      -30.4360715332      -31.4057314844  TIP3      9876            0.0000000000
     54544     10076  TIP3      H2             13.0616282831      -29.8314233118      -30.3844440581  TIP3      9876            0.0000000000
     54545     10077  TIP3      OH2             7.8002828319      -36.3739130873      -29.9295745180  TIP3      9877            0.0000000000
     54546     10077  TIP3      H1              7.4630201479      -36.4227326845      -29.0209138812  TIP3      9877            0.0000000000
     54547     10077  TIP3      H2              7.4615689630      -37.2333406656      -30.2545406556  TIP3      9877            0.0000000000
     54548     10078  TIP3      OH2             3.5379410044      -33.4937572997      -24.4856306632  TIP3      9878            0.0000000000
     54549     10078  TIP3      H1              2.6127281222      -33.7868633608      -24.6311591179  TIP3      9878            0.0000000000
     54550     10078  TIP3      H2              3.9195032750      -33.7848785310      -25.3452993753  TIP3      9878            0.0000000000
     54551     10079  TIP3      OH2             9.0405057573      -33.0182354230      -25.7189186726  TIP3      9879            0.0000000000
     54552     10079  TIP3      H1              8.6696682533      -32.1832309497      -26.0732005524  TIP3      9879            0.0000000000
     54553     10079  TIP3      H2              9.7626421786      -33.1849800160      -26.3452234996  TIP3      9879            0.0000000000
     54554     10080  TIP3      OH2             4.5767714079      -35.9383978572      -30.8295137212  TIP3      9880            0.0000000000
     54555     10080  TIP3      H1              4.1355718489      -36.3940605800      -30.0847249074  TIP3      9880            0.0000000000
     54556     10080  TIP3      H2              3.8539737111      -35.5611261557      -31.3420308799  TIP3      9880            0.0000000000
     54557     10081  TIP3      OH2            -2.1414964379      -36.2387811186      -23.7714660384  TIP3      9881            0.0000000000
     54558     10081  TIP3      H1             -1.4917044880      -36.2549296934      -23.0361307580  TIP3      9881            0.0000000000
     54559     10081  TIP3      H2             -1.6630999178      -36.6453951679      -24.5128514979  TIP3      9881            0.0000000000
     54560     10082  TIP3      OH2            -0.8591590867      -35.5374743539      -28.3213307920  TIP3      9882            0.0000000000
     54561     10082  TIP3      H1             -0.3493466909      -34.9551207191      -28.9156007838  TIP3      9882            0.0000000000
     54562     10082  TIP3      H2             -1.5514060737      -34.9114551847      -28.0221377148  TIP3      9882            0.0000000000
     54563     10083  TIP3      OH2             6.1512259460      -35.9721231953      -23.4939577163  TIP3      9883            0.0000000000
     54564     10083  TIP3      H1              5.2230104169      -36.0003280630      -23.2576984770  TIP3      9883            0.0000000000
     54565     10083  TIP3      H2              6.6299559227      -36.1138157674      -22.6711346365  TIP3      9883            0.0000000000
     54566     10084  TIP3      OH2             0.9151609345      -34.4255862542      -24.5992261047  TIP3      9884            0.0000000000
     54567     10084  TIP3      H1              0.0437469959      -34.2499808989      -25.0146072381  TIP3      9884            0.0000000000
     54568     10084  TIP3      H2              1.2256062814      -35.2429872199      -25.0380797349  TIP3      9884            0.0000000000
     54569     10085  TIP3      OH2             4.5634005664      -34.3579859821      -27.0033571633  TIP3      9885            0.0000000000
     54570     10085  TIP3      H1              5.5224442673      -34.2543666736      -26.8450669238  TIP3      9885            0.0000000000
     54571     10085  TIP3      H2              4.3254429739      -33.6783407434      -27.6601273078  TIP3      9885            0.0000000000
     54572     10086  TIP3      OH2             3.2652731450      -33.1882025191      -29.4168438655  TIP3      9886            0.0000000000
     54573     10086  TIP3      H1              2.7367219594      -33.5624090151      -30.1409114311  TIP3      9886            0.0000000000
     54574     10086  TIP3      H2              4.0875811582      -32.9670802385      -29.8798908118  TIP3      9886            0.0000000000
     54575     10087  TIP3      OH2             2.4042569691      -37.0666187644      -25.1558662312  TIP3      9887            0.0000000000
     54576     10087  TIP3      H1              2.0648924028      -37.9774247605      -25.1749127720  TIP3      9887            0.0000000000
     54577     10087  TIP3      H2              3.1846228288      -37.1320487766      -25.7217374013  TIP3      9887            0.0000000000
     54578     10088  TIP3      OH2             6.6125522807      -28.6607566057      -27.4708050257  TIP3      9888            0.0000000000
     54579     10088  TIP3      H1              5.8142289227      -29.1147610896      -27.8296549844  TIP3      9888            0.0000000000
     54580     10088  TIP3      H2              6.3771655875      -28.5225240139      -26.5335429818  TIP3      9888            0.0000000000
     54581     10089  TIP3      OH2            10.4373206443      -35.8481075617      -29.2650918317  TIP3      9889            0.0000000000
     54582     10089  TIP3      H1              9.4964264098      -35.6696169587      -29.4519217542  TIP3      9889            0.0000000000
     54583     10089  TIP3      H2             10.7891541490      -34.9814796329      -28.9564177526  TIP3      9889            0.0000000000
     54584     10090  TIP3      OH2            11.1903521430      -33.9192829409      -27.7211443036  TIP3      9890            0.0000000000
     54585     10090  TIP3      H1             12.0593661413      -34.0284348337      -27.2818721528  TIP3      9890            0.0000000000
     54586     10090  TIP3      H2             11.2846591540      -33.0738463525      -28.1857714851  TIP3      9890            0.0000000000
     54587     10091  TIP3      OH2             1.7433698129      -29.2637131548      -21.6967717960  TIP3      9891            0.0000000000
     54588     10091  TIP3      H1              2.4176110838      -29.2852041734      -22.3746478577  TIP3      9891            0.0000000000
     54589     10091  TIP3      H2              1.7504117038      -30.1197957587      -21.2470454938  TIP3      9891            0.0000000000
     54590     10092  TIP3      OH2             8.7071543066      -27.1702384945      -28.4958493796  TIP3      9892            0.0000000000
     54591     10092  TIP3      H1              8.3702709429      -26.3347193282      -28.1032869979  TIP3      9892            0.0000000000
     54592     10092  TIP3      H2              7.9881941574      -27.7919948874      -28.2445992318  TIP3      9892            0.0000000000
     54593     10093  TIP3      OH2            16.0754942699      -33.7917854957      -27.9235412706  TIP3      9893            0.0000000000
     54594     10093  TIP3      H1             15.5099520983      -34.0564360612      -28.6731359464  TIP3      9893            0.0000000000
     54595     10093  TIP3      H2             16.1579209949      -32.8325790612      -28.1521569251  TIP3      9893            0.0000000000
     54596     10094  TIP3      OH2            14.3459749642      -24.9465776866      -27.4968495906  TIP3      9894            0.0000000000
     54597     10094  TIP3      H1             14.0266249858      -25.8009744400      -27.1796666041  TIP3      9894            0.0000000000
     54598     10094  TIP3      H2             14.7072641464      -25.1485819300      -28.3745745182  TIP3      9894            0.0000000000
     54599     10095  TIP3      OH2            11.5443707030      -30.1253751549      -20.6706695877  TIP3      9895            0.0000000000
     54600     10095  TIP3      H1             10.6110379096      -30.3260053829      -20.4556622784  TIP3      9895            0.0000000000
     54601     10095  TIP3      H2             11.9809682045      -30.9749373091      -20.6881470227  TIP3      9895            0.0000000000
     54602     10096  TIP3      OH2             4.0917406308      -25.8342837178      -24.3272084262  TIP3      9896            0.0000000000
     54603     10096  TIP3      H1              4.6012617161      -25.0190735803      -24.4837180385  TIP3      9896            0.0000000000
     54604     10096  TIP3      H2              3.2206263546      -25.5574513158      -24.6375576973  TIP3      9896            0.0000000000
     54605     10097  TIP3      OH2            -0.1372343702      -30.9530936879      -29.7449574735  TIP3      9897            0.0000000000
     54606     10097  TIP3      H1              0.4444874215      -30.2981076233      -29.3166658355  TIP3      9897            0.0000000000
     54607     10097  TIP3      H2             -1.0263327316      -30.6443194960      -29.4867171704  TIP3      9897            0.0000000000
     54608     10098  TIP3      OH2             5.4929596980      -28.1387561507      -24.8104885496  TIP3      9898            0.0000000000
     54609     10098  TIP3      H1              5.2299698644      -27.1995528201      -24.7140139423  TIP3      9898            0.0000000000
     54610     10098  TIP3      H2              4.7799820564      -28.5650562089      -24.3451938679  TIP3      9898            0.0000000000
     54611     10099  TIP3      OH2             4.1992478149      -23.1407843578      -25.3126431107  TIP3      9899            0.0000000000
     54612     10099  TIP3      H1              3.2372634781      -23.0068431071      -25.1532327442  TIP3      9899            0.0000000000
     54613     10099  TIP3      H2              4.5592850852      -22.3181152578      -24.9048751912  TIP3      9899            0.0000000000
     54614     10100  TIP3      OH2            11.7884002056      -26.8669890565      -29.7126727677  TIP3      9900            0.0000000000
     54615     10100  TIP3      H1             12.1304107560      -27.3198715234      -28.9084851281  TIP3      9900            0.0000000000
     54616     10100  TIP3      H2             10.8521344736      -27.0597992293      -29.5397772067  TIP3      9900            0.0000000000
     54617     10101  TIP3      OH2            16.3013205059      -22.5075191724      -29.3742549811  TIP3      9901            0.0000000000
     54618     10101  TIP3      H1             16.9657181493      -21.8487271989      -29.6506689929  TIP3      9901            0.0000000000
     54619     10101  TIP3      H2             15.5629105338      -21.9004780829      -29.1458769785  TIP3      9901            0.0000000000
     54620     10102  TIP3      OH2            12.5791188205      -28.2141468637      -27.4168209316  TIP3      9902            0.0000000000
     54621     10102  TIP3      H1             12.3578052128      -29.0320168019      -26.9213531059  TIP3      9902            0.0000000000
     54622     10102  TIP3      H2             13.5512327750      -28.2034507331      -27.2542769302  TIP3      9902            0.0000000000
     54623     10103  TIP3      OH2             6.0126856452      -25.8173344032      -31.1832948759  TIP3      9903            0.0000000000
     54624     10103  TIP3      H1              6.0378060437      -26.5839329149      -31.7728145415  TIP3      9903            0.0000000000
     54625     10103  TIP3      H2              5.5185935563      -26.2107686905      -30.4232941262  TIP3      9903            0.0000000000
     54626     10104  TIP3      OH2             4.7230624975      -26.2622133535      -28.7281806394  TIP3      9904            0.0000000000
     54627     10104  TIP3      H1              4.9969626936      -26.7852766860      -27.9632336813  TIP3      9904            0.0000000000
     54628     10104  TIP3      H2              4.8191593349      -25.3395715978      -28.3972686807  TIP3      9904            0.0000000000
     54629     10105  TIP3      OH2             1.2642653920      -29.0267435250      -28.2456577722  TIP3      9905            0.0000000000
     54630     10105  TIP3      H1              0.5565447310      -28.6333514801      -27.6973494184  TIP3      9905            0.0000000000
     54631     10105  TIP3      H2              1.7762260931      -28.2483478346      -28.5302303901  TIP3      9905            0.0000000000
     54632     10106  TIP3      OH2             9.9325371414      -36.8241042864      -26.8132742239  TIP3      9906            0.0000000000
     54633     10106  TIP3      H1             10.0552657633      -36.2902712239      -27.6271942734  TIP3      9906            0.0000000000
     54634     10106  TIP3      H2             10.3879998044      -36.2562873797      -26.1583139747  TIP3      9906            0.0000000000
     54635     10107  TIP3      OH2             7.5299342020      -24.6249662190      -28.0395979683  TIP3      9907            0.0000000000
     54636     10107  TIP3      H1              6.7169203052      -24.0836664218      -27.9378824879  TIP3      9907            0.0000000000
     54637     10107  TIP3      H2              8.0701802868      -24.0589073705      -28.6096716181  TIP3      9907            0.0000000000
     54638     10108  TIP3      OH2             7.0802416698      -35.0230455115      -26.0142626311  TIP3      9908            0.0000000000
     54639     10108  TIP3      H1              7.8715584932      -34.4495191790      -25.9391126690  TIP3      9908            0.0000000000
     54640     10108  TIP3      H2              6.8279182674      -35.1520584404      -25.0822523707  TIP3      9908            0.0000000000
     54641     10109  TIP3      OH2             7.8817598760      -37.9509252603      -25.0891510113  TIP3      9909            0.0000000000
     54642     10109  TIP3      H1              7.6083445903      -37.2522513301      -24.4738500676  TIP3      9909            0.0000000000
     54643     10109  TIP3      H2              8.5840662603      -37.4655271833      -25.5839737402  TIP3      9909            0.0000000000
     54644     10110  TIP3      OH2             4.9348947604      -23.5814608776      -28.0010116395  TIP3      9910            0.0000000000
     54645     10110  TIP3      H1              5.0278520120      -22.7654070971      -28.5495455678  TIP3      9910            0.0000000000
     54646     10110  TIP3      H2              4.6614136155      -23.2199123781      -27.1291611806  TIP3      9910            0.0000000000
     54647     10111  TIP3      OH2             3.5523891030      -36.8082703504      -28.4349123054  TIP3      9911            0.0000000000
     54648     10111  TIP3      H1              3.5267564356      -35.9191794244      -28.0269071750  TIP3      9911            0.0000000000
     54649     10111  TIP3      H2              4.4564664795      -37.0759500929      -28.1665845750  TIP3      9911            0.0000000000
     54650     10112  TIP3      OH2             1.8137214548      -26.4230581504      -29.3857068807  TIP3      9912            0.0000000000
     54651     10112  TIP3      H1              2.4762145151      -25.7936405565      -29.0618134359  TIP3      9912            0.0000000000
     54652     10112  TIP3      H2              2.3435269338      -26.8852713254      -30.0665807983  TIP3      9912            0.0000000000
     54653     10113  TIP3      OH2             0.1578135760      -33.7449404781      -30.2451219856  TIP3      9913            0.0000000000
     54654     10113  TIP3      H1              0.1772607749      -32.7897150177      -30.0222346080  TIP3      9913            0.0000000000
     54655     10113  TIP3      H2             -0.7392619575      -33.9102730230      -30.5391613221  TIP3      9913            0.0000000000
     54656     10114  TIP3      OH2            13.5968095431      -23.1809718329      -20.4272652009  TIP3      9914            0.0000000000
     54657     10114  TIP3      H1             13.3173369862      -22.3716654459      -20.9057234454  TIP3      9914            0.0000000000
     54658     10114  TIP3      H2             14.4106274877      -22.9088483564      -20.0338263126  TIP3      9914            0.0000000000
     54659     10115  TIP3      OH2            -0.0708861538      -25.0182608116      -25.3406666116  TIP3      9915            0.0000000000
     54660     10115  TIP3      H1             -0.9298437745      -24.5840021008      -25.4340075757  TIP3      9915            0.0000000000
     54661     10115  TIP3      H2              0.4045555577      -24.5787258205      -26.0623548125  TIP3      9915            0.0000000000
     54662     10116  TIP3      OH2             7.9598341442      -23.9452616445      -31.0491399587  TIP3      9916            0.0000000000
     54663     10116  TIP3      H1              7.2520732865      -24.5896815612      -30.8094803638  TIP3      9916            0.0000000000
     54664     10116  TIP3      H2              8.6667986371      -24.5539967911      -31.2735362055  TIP3      9916            0.0000000000
     54665     10117  TIP3      OH2            12.4856155227      -24.2140322501      -30.8780459426  TIP3      9917            0.0000000000
     54666     10117  TIP3      H1             12.8016908600      -24.9720560560      -30.3601404928  TIP3      9917            0.0000000000
     54667     10117  TIP3      H2             13.2656447276      -23.9797192230      -31.4060898625  TIP3      9917            0.0000000000
     54668     10118  TIP3      OH2             3.3954854766      -28.2720071204      -31.0514768043  TIP3      9918            0.0000000000
     54669     10118  TIP3      H1              3.5350163558      -29.0239853738      -30.4499769732  TIP3      9918            0.0000000000
     54670     10118  TIP3      H2              4.1453412273      -28.3862068470      -31.6605962291  TIP3      9918            0.0000000000
     54671     10119  TIP3      OH2             8.8600567457      -27.1616390047      -31.3116211416  TIP3      9919            0.0000000000
     54672     10119  TIP3      H1              8.5695950976      -27.0600006906      -30.3768072745  TIP3      9919            0.0000000000
     54673     10119  TIP3      H2              8.6312392308      -28.1242149473      -31.3922068062  TIP3      9919            0.0000000000
     54674     10120  TIP3      OH2             4.5964160436      -30.2376410112      -28.6153525175  TIP3      9920            0.0000000000
     54675     10120  TIP3      H1              4.0866932680      -30.7817343919      -27.9937183413  TIP3      9920            0.0000000000
     54676     10120  TIP3      H2              4.8979100540      -30.9162717118      -29.2641722132  TIP3      9920            0.0000000000
     54677     10121  TIP3      OH2             5.6726907509      -32.0226689149      -30.4129653093  TIP3      9921            0.0000000000
     54678     10121  TIP3      H1              5.5197760304      -32.1173123854      -31.3754457425  TIP3      9921            0.0000000000
     54679     10121  TIP3      H2              6.6493461512      -31.9745542338      -30.3506857180  TIP3      9921            0.0000000000
     54680     10122  TIP3      OH2            14.9954490099      -29.6849835891      -30.9798525286  TIP3      9922            0.0000000000
     54681     10122  TIP3      H1             14.8181330072      -30.0846306215      -31.8548948265  TIP3      9922            0.0000000000
     54682     10122  TIP3      H2             15.1016905487      -28.7362191853      -31.2002368592  TIP3      9922            0.0000000000
     54683     10123  TIP3      OH2             5.5035954131      -21.3450579455      -29.3590263573  TIP3      9923            0.0000000000
     54684     10123  TIP3      H1              6.4626366721      -21.2235937706      -29.2505096001  TIP3      9923            0.0000000000
     54685     10123  TIP3      H2              5.3599671814      -20.7248927040      -30.0833347720  TIP3      9923            0.0000000000
     54686     10124  TIP3      OH2            -0.9441586599      -26.7524171729      -29.8682239852  TIP3      9924            0.0000000000
     54687     10124  TIP3      H1              0.0233056777      -26.6577852023      -29.6900856125  TIP3      9924            0.0000000000
     54688     10124  TIP3      H2             -0.8935836395      -27.3946673537      -30.6158549934  TIP3      9924            0.0000000000
     54689     10125  TIP3      OH2            -2.1821283200      -21.3532558708      -24.9000273539  TIP3      9925            0.0000000000
     54690     10125  TIP3      H1             -2.8759534252      -21.8526482374      -25.3824371894  TIP3      9925            0.0000000000
     54691     10125  TIP3      H2             -1.8615715628      -22.0246344894      -24.2739605980  TIP3      9925            0.0000000000
     54692     10126  TIP3      OH2            -1.2883543802      -23.2196472216      -23.0380450314  TIP3      9926            0.0000000000
     54693     10126  TIP3      H1             -1.6776776800      -24.0808366200      -22.8576982324  TIP3      9926            0.0000000000
     54694     10126  TIP3      H2             -1.1330098023      -22.8556605051      -22.1493730250  TIP3      9926            0.0000000000
     54695     10127  TIP3      OH2            15.2321879857      -28.5282092355      -26.7775373772  TIP3      9927            0.0000000000
     54696     10127  TIP3      H1             16.1970383964      -28.3758019463      -26.9254096717  TIP3      9927            0.0000000000
     54697     10127  TIP3      H2             15.4010271055      -29.4377163204      -26.4422271901  TIP3      9927            0.0000000000
     54698     10128  TIP3      OH2            15.6705399938      -30.5863279785      -24.9712895374  TIP3      9928            0.0000000000
     54699     10128  TIP3      H1             15.1284483124      -31.3376558192      -24.6856046776  TIP3      9928            0.0000000000
     54700     10128  TIP3      H2             16.5024065922      -30.6167782710      -24.4612636834  TIP3      9928            0.0000000000
     54701     10129  TIP3      OH2            15.9008016346      -31.1086268661      -28.9156033818  TIP3      9929            0.0000000000
     54702     10129  TIP3      H1             15.5664784848      -30.5146650685      -29.6129264163  TIP3      9929            0.0000000000
     54703     10129  TIP3      H2             16.1650724685      -30.4531221981      -28.2287096584  TIP3      9929            0.0000000000
     54704     10130  TIP3      OH2            14.5457731248      -33.6600197756      -30.2698501261  TIP3      9930            0.0000000000
     54705     10130  TIP3      H1             14.6530568151      -32.9851500910      -30.9485294245  TIP3      9930            0.0000000000
     54706     10130  TIP3      H2             14.3770980012      -34.4821255194      -30.7646064592  TIP3      9930            0.0000000000
     54707     10131  TIP3      OH2            13.6712198867      -32.2531206830      -24.5735167192  TIP3      9931            0.0000000000
     54708     10131  TIP3      H1             13.5647346630      -33.2132610144      -24.6547443682  TIP3      9931            0.0000000000
     54709     10131  TIP3      H2             13.3449783387      -32.0589817593      -23.7010992712  TIP3      9931            0.0000000000
     54710     10132  TIP3      OH2            13.8243640070      -36.2151697712      -31.1195995774  TIP3      9932            0.0000000000
     54711     10132  TIP3      H1             14.4157689737      -36.6415119100      -30.4693216721  TIP3      9932            0.0000000000
     54712     10132  TIP3      H2             12.9583766197      -36.6488203171      -30.9947059462  TIP3      9932            0.0000000000
     54713     10133  TIP3      OH2            13.3817365062      -34.6343599300      -26.1689183462  TIP3      9933            0.0000000000
     54714     10133  TIP3      H1             13.6747762466      -35.5578348741      -26.0080849240  TIP3      9933            0.0000000000
     54715     10133  TIP3      H2             14.2114200507      -34.2389560506      -26.4733867134  TIP3      9933            0.0000000000
     54716     10134  TIP3      OH2            13.9500878517      -34.0255661164      -20.7190750318  TIP3      9934            0.0000000000
     54717     10134  TIP3      H1             14.9155133231      -33.9588954298      -20.7165967812  TIP3      9934            0.0000000000
     54718     10134  TIP3      H2             13.8193494114      -34.0613228274      -19.7671945372  TIP3      9934            0.0000000000
     54719     10135  TIP3      OH2            14.0308875910      -37.3498645838      -26.1028061483  TIP3      9935            0.0000000000
     54720     10135  TIP3      H1             14.2253300429      -37.8039341163      -25.2510767826  TIP3      9935            0.0000000000
     54721     10135  TIP3      H2             13.4630595121      -38.0081281507      -26.5553314694  TIP3      9935            0.0000000000
     54722     10136  TIP3      OH2            -0.3293682399      -36.5813086764      -21.6658192558  TIP3      9936            0.0000000000
     54723     10136  TIP3      H1             -0.1192641754      -37.3901940525      -21.1756253624  TIP3      9936            0.0000000000
     54724     10136  TIP3      H2             -0.0662211101      -35.8855606417      -21.0773451398  TIP3      9936            0.0000000000
     54725     10137  TIP3      OH2            15.8810057686      -37.3067306083      -29.5221488733  TIP3      9937            0.0000000000
     54726     10137  TIP3      H1             16.2733323126      -38.0419069546      -30.0568368979  TIP3      9937            0.0000000000
     54727     10137  TIP3      H2             16.5970619421      -36.6574586526      -29.4941749294  TIP3      9937            0.0000000000
     54728     10138  TIP3      OH2            -1.7845550200      -37.2932272172      -26.3771465101  TIP3      9938            0.0000000000
     54729     10138  TIP3      H1             -2.7223261367      -37.1276610516      -26.5691724682  TIP3      9938            0.0000000000
     54730     10138  TIP3      H2             -1.3629309014      -36.8352570201      -27.1252884657  TIP3      9938            0.0000000000
     54731     10139  TIP3      OH2            12.9568375318      -22.4105523618      -24.5035563823  TIP3      9939            0.0000000000
     54732     10139  TIP3      H1             13.6482341265      -22.6400831751      -25.1354974822  TIP3      9939            0.0000000000
     54733     10139  TIP3      H2             13.3931813466      -21.8701485280      -23.8150741682  TIP3      9939            0.0000000000
     54734     10140  TIP3      OH2             2.2490643805      -23.8768673343      -22.1021074565  TIP3      9940            0.0000000000
     54735     10140  TIP3      H1              2.1050063485      -24.7973572470      -21.9015380880  TIP3      9940            0.0000000000
     54736     10140  TIP3      H2              3.0642152993      -23.7014156527      -21.6108342088  TIP3      9940            0.0000000000
     54737     10141  TIP3      OH2            13.5132863677      -38.8515358424      -21.7429270606  TIP3      9941            0.0000000000
     54738     10141  TIP3      H1             14.1387196781      -38.9350684904      -22.4964068224  TIP3      9941            0.0000000000
     54739     10141  TIP3      H2             12.6512237250      -39.1407150441      -22.1049560567  TIP3      9941            0.0000000000
     54740     10142  TIP3      OH2            15.0766488647      -38.4065105735      -23.8474211946  TIP3      9942            0.0000000000
     54741     10142  TIP3      H1             15.7835432509      -39.0451674879      -24.0716809605  TIP3      9942            0.0000000000
     54742     10142  TIP3      H2             15.5845542001      -37.5765386222      -23.6780249712  TIP3      9942            0.0000000000
     54743     10143  TIP3      OH2             0.6425938916      -39.0898387235      -24.2468845562  TIP3      9943            0.0000000000
     54744     10143  TIP3      H1             -0.1417920834      -39.2916063599      -24.7789626917  TIP3      9943            0.0000000000
     54745     10143  TIP3      H2              1.0942233135      -39.9415726258      -24.2536297480  TIP3      9943            0.0000000000
     54746     10144  TIP3      OH2            -0.4813486989      -39.2898026235      -28.4020525597  TIP3      9944            0.0000000000
     54747     10144  TIP3      H1             -0.1180451877      -38.6931798621      -29.0785859291  TIP3      9944            0.0000000000
     54748     10144  TIP3      H2             -1.1660383335      -38.7328855831      -28.0108876230  TIP3      9944            0.0000000000
     54749     10145  TIP3      OH2             5.0444955604      -38.7430287408      -24.5301053960  TIP3      9945            0.0000000000
     54750     10145  TIP3      H1              6.0121550127      -38.7045980000      -24.5929674383  TIP3      9945            0.0000000000
     54751     10145  TIP3      H2              5.0136789505      -39.2681858715      -23.7278124132  TIP3      9945            0.0000000000
     54752     10146  TIP3      OH2            10.7295670583      -38.9883402148      -22.6129398833  TIP3      9946            0.0000000000
     54753     10146  TIP3      H1             10.7243601731      -38.9260259849      -23.5777704058  TIP3      9946            0.0000000000
     54754     10146  TIP3      H2             10.4675150111      -39.9163443236      -22.5476400639  TIP3      9946            0.0000000000
     54755     10147  TIP3      OH2            12.0822739953      -39.0473641271      -27.1367615527  TIP3      9947            0.0000000000
     54756     10147  TIP3      H1             11.3155752185      -38.4669343055      -27.2569558964  TIP3      9947            0.0000000000
     54757     10147  TIP3      H2             11.7473802565      -39.9437167003      -26.9698167059  TIP3      9947            0.0000000000
     54758     10148  TIP3      OH2            -0.6592688010      -23.3849008165      -27.4763114904  TIP3      9948            0.0000000000
     54759     10148  TIP3      H1             -1.3123440634      -23.3981583503      -28.1997888549  TIP3      9948            0.0000000000
     54760     10148  TIP3      H2             -0.6560177410      -22.4288433714      -27.3100511266  TIP3      9948            0.0000000000
     54761     10149  TIP3      OH2             1.2332236862      -37.4640753813      -29.9963834840  TIP3      9949            0.0000000000
     54762     10149  TIP3      H1              1.7998461045      -37.9943305113      -30.5787153216  TIP3      9949            0.0000000000
     54763     10149  TIP3      H2              1.8932643105      -37.0732598431      -29.3816636569  TIP3      9949            0.0000000000
     54764     10150  TIP3      OH2             6.2193282812      -37.1420749711      -27.5151539279  TIP3      9950            0.0000000000
     54765     10150  TIP3      H1              6.5544650488      -37.7282040332      -26.8221029461  TIP3      9950            0.0000000000
     54766     10150  TIP3      H2              6.3529575304      -36.2675899425      -27.0815848219  TIP3      9950            0.0000000000
     54767     10151  TIP3      OH2             8.2185718749      -22.0682609738      -29.1441796544  TIP3      9951            0.0000000000
     54768     10151  TIP3      H1              9.1367637491      -21.8445542677      -29.3659949767  TIP3      9951            0.0000000000
     54769     10151  TIP3      H2              7.9970562278      -22.5896282187      -29.9440697457  TIP3      9951            0.0000000000
     54770     10152  TIP3      OH2            14.9612140901      -22.5715667303      -26.4400609681  TIP3      9952            0.0000000000
     54771     10152  TIP3      H1             14.7000690217      -23.3507186455      -26.9882428481  TIP3      9952            0.0000000000
     54772     10152  TIP3      H2             14.8294701742      -21.8366252234      -27.0761556927  TIP3      9952            0.0000000000
     54773     10153  TIP3      OH2             1.1366777607      -22.3935588889      -30.5437927261  TIP3      9953            0.0000000000
     54774     10153  TIP3      H1              0.8859964557      -22.1317065645      -29.6446166694  TIP3      9953            0.0000000000
     54775     10153  TIP3      H2              1.9197982411      -22.9588372823      -30.3879884230  TIP3      9953            0.0000000000
     54776     10154  TIP3      OH2            28.5288817160      -29.9555938647      -24.3112981699  TIP3      9954            0.0000000000
     54777     10154  TIP3      H1             28.6001712867      -28.9749260632      -24.4031785128  TIP3      9954            0.0000000000
     54778     10154  TIP3      H2             27.9023152975      -30.1857285128      -25.0192751366  TIP3      9954            0.0000000000
     54779     10155  TIP3      OH2            31.1020332080      -27.6997808975      -22.6237532028  TIP3      9955            0.0000000000
     54780     10155  TIP3      H1             30.8101807462      -28.4604875667      -22.1057460770  TIP3      9955            0.0000000000
     54781     10155  TIP3      H2             31.1982478835      -27.0490527478      -21.9064673663  TIP3      9955            0.0000000000
     54782     10156  TIP3      OH2            17.3002628372      -33.0321834551      -25.2655208280  TIP3      9956            0.0000000000
     54783     10156  TIP3      H1             17.0254116193      -32.1139685679      -25.4640315091  TIP3      9956            0.0000000000
     54784     10156  TIP3      H2             16.8065632622      -33.5175155862      -25.9370888235  TIP3      9956            0.0000000000
     54785     10157  TIP3      OH2            18.0932846560      -30.7620112497      -23.1732703780  TIP3      9957            0.0000000000
     54786     10157  TIP3      H1             18.3264511216      -31.6054970806      -22.7782537457  TIP3      9957            0.0000000000
     54787     10157  TIP3      H2             18.7639455176      -30.6466119713      -23.8804743276  TIP3      9957            0.0000000000
     54788     10158  TIP3      OH2            28.2769925532      -22.5914921876      -22.3786012546  TIP3      9958            0.0000000000
     54789     10158  TIP3      H1             28.9206404865      -23.2883996782      -22.6409440620  TIP3      9958            0.0000000000
     54790     10158  TIP3      H2             28.0645967790      -22.8087475431      -21.4701278559  TIP3      9958            0.0000000000
     54791     10159  TIP3      OH2            29.8682090891      -35.6870704757      -24.5442004163  TIP3      9959            0.0000000000
     54792     10159  TIP3      H1             30.5003890579      -35.9416467283      -23.8387845162  TIP3      9959            0.0000000000
     54793     10159  TIP3      H2             30.4159141917      -35.0616284651      -25.0417189681  TIP3      9959            0.0000000000
     54794     10160  TIP3      OH2            23.9943754271      -31.8253693898      -22.8704609872  TIP3      9960            0.0000000000
     54795     10160  TIP3      H1             24.5319385771      -32.4569766276      -22.4047146773  TIP3      9960            0.0000000000
     54796     10160  TIP3      H2             23.3723423078      -32.4009898258      -23.3625538155  TIP3      9960            0.0000000000
     54797     10161  TIP3      OH2            28.3171456674      -27.3644012998      -25.2682796312  TIP3      9961            0.0000000000
     54798     10161  TIP3      H1             28.0076157841      -27.6470916632      -26.1374230222  TIP3      9961            0.0000000000
     54799     10161  TIP3      H2             28.0194732125      -26.4227460945      -25.2312040233  TIP3      9961            0.0000000000
     54800     10162  TIP3      OH2            31.6423235557      -36.2919016917      -22.4702036528  TIP3      9962            0.0000000000
     54801     10162  TIP3      H1             31.4985666116      -37.0671735156      -21.9448948355  TIP3      9962            0.0000000000
     54802     10162  TIP3      H2             32.3080209138      -35.8135769519      -21.9406758292  TIP3      9962            0.0000000000
     54803     10163  TIP3      OH2            18.3253566491      -27.2180088865      -27.0285931677  TIP3      9963            0.0000000000
     54804     10163  TIP3      H1             17.7813820317      -27.1807413168      -27.8202722034  TIP3      9963            0.0000000000
     54805     10163  TIP3      H2             18.0459680392      -26.5456132915      -26.4243267355  TIP3      9963            0.0000000000
     54806     10164  TIP3      OH2            24.8341674598      -39.3537999774      -21.6323243582  TIP3      9964            0.0000000000
     54807     10164  TIP3      H1             24.9903129160      -40.2417207615      -21.2367575594  TIP3      9964            0.0000000000
     54808     10164  TIP3      H2             24.1455591432      -39.0487061234      -21.0026744195  TIP3      9964            0.0000000000
     54809     10165  TIP3      OH2            29.9273076702      -24.1457056080      -23.6637460980  TIP3      9965            0.0000000000
     54810     10165  TIP3      H1             30.3989126792      -24.8512193065      -24.1482698051  TIP3      9965            0.0000000000
     54811     10165  TIP3      H2             30.3770076761      -23.3314636476      -23.9882048773  TIP3      9965            0.0000000000
     54812     10166  TIP3      OH2            31.1285453630      -26.1911107477      -25.1031414813  TIP3      9966            0.0000000000
     54813     10166  TIP3      H1             30.8423625907      -26.8887256392      -25.7143619439  TIP3      9966            0.0000000000
     54814     10166  TIP3      H2             31.1922101122      -26.6897054358      -24.2641679449  TIP3      9966            0.0000000000
     54815     10167  TIP3      OH2            27.2858427364      -30.7117554907      -26.8205082769  TIP3      9967            0.0000000000
     54816     10167  TIP3      H1             26.5740790067      -30.1444868303      -27.1945615398  TIP3      9967            0.0000000000
     54817     10167  TIP3      H2             27.9738863361      -30.6159212151      -27.5058140126  TIP3      9967            0.0000000000
     54818     10168  TIP3      OH2            27.3431870530      -32.1393202349      -29.8489823878  TIP3      9968            0.0000000000
     54819     10168  TIP3      H1             28.0515927015      -32.1518058613      -29.1876927599  TIP3      9968            0.0000000000
     54820     10168  TIP3      H2             27.6490287676      -32.8571745828      -30.4183588292  TIP3      9968            0.0000000000
     54821     10169  TIP3      OH2            30.7008366513      -30.5146434407      -25.9282199716  TIP3      9969            0.0000000000
     54822     10169  TIP3      H1             29.9618366110      -30.2732352380      -25.3219730349  TIP3      9969            0.0000000000
     54823     10169  TIP3      H2             31.1900231783      -31.1802920883      -25.4134596828  TIP3      9969            0.0000000000
     54824     10170  TIP3      OH2            22.2352130793      -30.0754253677      -23.7453171889  TIP3      9970            0.0000000000
     54825     10170  TIP3      H1             22.0237905791      -30.0731918914      -24.7091777993  TIP3      9970            0.0000000000
     54826     10170  TIP3      H2             23.0439853235      -30.6042245171      -23.7155160364  TIP3      9970            0.0000000000
     54827     10171  TIP3      OH2            22.7898001821      -31.1759614758      -20.3736653519  TIP3      9971            0.0000000000
     54828     10171  TIP3      H1             23.1305729839      -30.8963778408      -21.2454085188  TIP3      9971            0.0000000000
     54829     10171  TIP3      H2             23.0055424542      -30.4149689821      -19.8199435362  TIP3      9971            0.0000000000
     54830     10172  TIP3      OH2            29.5901140546      -31.2990931478      -28.2743261751  TIP3      9972            0.0000000000
     54831     10172  TIP3      H1             30.1435735177      -31.1202763093      -27.4729934940  TIP3      9972            0.0000000000
     54832     10172  TIP3      H2             30.0395178357      -30.7998797822      -28.9942748928  TIP3      9972            0.0000000000
     54833     10173  TIP3      OH2            27.2894269690      -24.6054160813      -24.8035410735  TIP3      9973            0.0000000000
     54834     10173  TIP3      H1             27.7352242351      -24.2872836584      -24.0068726750  TIP3      9973            0.0000000000
     54835     10173  TIP3      H2             26.7464508394      -23.8408537574      -25.0362695325  TIP3      9973            0.0000000000
     54836     10174  TIP3      OH2            33.2872452401      -39.5507023784      -28.3881341076  TIP3      9974            0.0000000000
     54837     10174  TIP3      H1             32.3826244788      -39.4167756216      -28.0688310434  TIP3      9974            0.0000000000
     54838     10174  TIP3      H2             33.5122616699      -38.7234148938      -28.8309997479  TIP3      9974            0.0000000000
     54839     10175  TIP3      OH2            21.3342402321      -31.0062723605      -26.5205597553  TIP3      9975            0.0000000000
     54840     10175  TIP3      H1             21.0770172974      -30.0830589801      -26.7833518587  TIP3      9975            0.0000000000
     54841     10175  TIP3      H2             20.5192369104      -31.4830055987      -26.6564824828  TIP3      9975            0.0000000000
     54842     10176  TIP3      OH2            34.4244053087      -25.2126265748      -30.0182613816  TIP3      9976            0.0000000000
     54843     10176  TIP3      H1             34.5854197220      -24.2691767536      -29.8458059086  TIP3      9976            0.0000000000
     54844     10176  TIP3      H2             35.3534297723      -25.5208665343      -30.0310911198  TIP3      9976            0.0000000000
     54845     10177  TIP3      OH2            26.8004281105      -21.6671672146      -26.3936299250  TIP3      9977            0.0000000000
     54846     10177  TIP3      H1             26.6708968834      -21.7311317602      -27.3545821604  TIP3      9977            0.0000000000
     54847     10177  TIP3      H2             26.7800221255      -20.7102440577      -26.2132764024  TIP3      9977            0.0000000000
     54848     10178  TIP3      OH2            20.5190163399      -22.8662359518      -24.5388886128  TIP3      9978            0.0000000000
     54849     10178  TIP3      H1             20.6967200647      -23.2960536486      -23.6589307595  TIP3      9978            0.0000000000
     54850     10178  TIP3      H2             19.8019933340      -23.4814609279      -24.8138944129  TIP3      9978            0.0000000000
     54851     10179  TIP3      OH2            29.8407219625      -22.4444312567      -29.4117843865  TIP3      9979            0.0000000000
     54852     10179  TIP3      H1             30.2892709233      -23.2092014975      -29.8388272471  TIP3      9979            0.0000000000
     54853     10179  TIP3      H2             29.8717225208      -22.7045215432      -28.4642815358  TIP3      9979            0.0000000000
     54854     10180  TIP3      OH2            29.5384570278      -22.5268190639      -26.6390070612  TIP3      9980            0.0000000000
     54855     10180  TIP3      H1             28.5763483437      -22.4402197636      -26.4644039323  TIP3      9980            0.0000000000
     54856     10180  TIP3      H2             29.7669578064      -23.2500621036      -26.0350180339  TIP3      9980            0.0000000000
     54857     10181  TIP3      OH2            22.3993661212      -38.5980647459      -20.6102943017  TIP3      9981            0.0000000000
     54858     10181  TIP3      H1             21.4776591826      -38.7065163857      -20.9486396324  TIP3      9981            0.0000000000
     54859     10181  TIP3      H2             22.3475574095      -37.7896964817      -20.0873684060  TIP3      9981            0.0000000000
     54860     10182  TIP3      OH2            31.0320730545      -30.2586162271      -30.4523521213  TIP3      9982            0.0000000000
     54861     10182  TIP3      H1             31.0125829920      -30.4500460515      -31.4192954557  TIP3      9982            0.0000000000
     54862     10182  TIP3      H2             31.8935013776      -29.8201168086      -30.4033400739  TIP3      9982            0.0000000000
     54863     10183  TIP3      OH2            26.6581014213      -36.3774324135      -29.9285631591  TIP3      9983            0.0000000000
     54864     10183  TIP3      H1             26.3183945326      -36.4245587785      -29.0205280893  TIP3      9983            0.0000000000
     54865     10183  TIP3      H2             26.3146932092      -37.2349711162      -30.2544525638  TIP3      9983            0.0000000000
     54866     10184  TIP3      OH2            22.4076420567      -33.5605924830      -24.4566455321  TIP3      9984            0.0000000000
     54867     10184  TIP3      H1             21.4653808628      -33.7473219027      -24.6366542444  TIP3      9984            0.0000000000
     54868     10184  TIP3      H2             22.7715321212      -33.7571577740      -25.3459559572  TIP3      9984            0.0000000000
     54869     10185  TIP3      OH2            27.9383472852      -32.9705145904      -25.6731679011  TIP3      9985            0.0000000000
     54870     10185  TIP3      H1             27.5347940956      -32.1794936097      -26.1032599144  TIP3      9985            0.0000000000
     54871     10185  TIP3      H2             28.6077563160      -33.1846653295      -26.3486047234  TIP3      9985            0.0000000000
     54872     10186  TIP3      OH2            28.9984031430      -33.5187597181      -22.9349436777  TIP3      9986            0.0000000000
     54873     10186  TIP3      H1             28.6920700655      -32.9845463560      -23.6757824282  TIP3      9986            0.0000000000
     54874     10186  TIP3      H2             29.0829406382      -34.3864312012      -23.3741374925  TIP3      9986            0.0000000000
     54875     10187  TIP3      OH2            23.4334099146      -35.9377670292      -30.8303714089  TIP3      9987            0.0000000000
     54876     10187  TIP3      H1             22.9912273751      -36.3842121136      -30.0807134288  TIP3      9987            0.0000000000
     54877     10187  TIP3      H2             22.7121628175      -35.5514056392      -31.3374968401  TIP3      9987            0.0000000000
     54878     10188  TIP3      OH2            16.7199575864      -36.2393701159      -23.7136374657  TIP3      9988            0.0000000000
     54879     10188  TIP3      H1             17.3783283289      -36.2274549731      -23.0228084105  TIP3      9988            0.0000000000
     54880     10188  TIP3      H2             17.1737603203      -36.6265479516      -24.4808658059  TIP3      9988            0.0000000000
     54881     10189  TIP3      OH2            17.9624667929      -35.5717688982      -28.3663893680  TIP3      9989            0.0000000000
     54882     10189  TIP3      H1             18.5002161319      -34.9560486387      -28.9079101313  TIP3      9989            0.0000000000
     54883     10189  TIP3      H2             17.3157383594      -34.9140448866      -28.0136798509  TIP3      9989            0.0000000000
     54884     10190  TIP3      OH2            24.9764326878      -35.9273525224      -23.5340905150  TIP3      9990            0.0000000000
     54885     10190  TIP3      H1             24.0771903697      -35.9926892719      -23.1932449793  TIP3      9990            0.0000000000
     54886     10190  TIP3      H2             25.4829011768      -36.0939006527      -22.7185067267  TIP3      9990            0.0000000000
     54887     10191  TIP3      OH2            19.7867980919      -34.4334234245      -24.5905505748  TIP3      9991            0.0000000000
     54888     10191  TIP3      H1             18.9157650176      -34.2240785656      -24.9914127464  TIP3      9991            0.0000000000
     54889     10191  TIP3      H2             20.0843216127      -35.2429026621      -25.0486217114  TIP3      9991            0.0000000000
     54890     10192  TIP3      OH2            23.4071506377      -34.3540778643      -27.0062044009  TIP3      9992            0.0000000000
     54891     10192  TIP3      H1             24.3669728073      -34.2598215504      -26.8620498084  TIP3      9992            0.0000000000
     54892     10192  TIP3      H2             23.1672042261      -33.6475268957      -27.6368671079  TIP3      9992            0.0000000000
     54893     10193  TIP3      OH2            22.1444234731      -33.2068725926      -29.4187847912  TIP3      9993            0.0000000000
     54894     10193  TIP3      H1             21.5962126028      -33.5603574848      -30.1382148407  TIP3      9993            0.0000000000
     54895     10193  TIP3      H2             22.9543787846      -32.9767987689      -29.8961557036  TIP3      9993            0.0000000000
     54896     10194  TIP3      OH2            21.2211402677      -37.0543363232      -25.1914854238  TIP3      9994            0.0000000000
     54897     10194  TIP3      H1             20.9360938994      -37.9798876585      -25.1729154973  TIP3      9994            0.0000000000
     54898     10194  TIP3      H2             22.0408945920      -37.1184763824      -25.6955764204  TIP3      9994            0.0000000000
     54899     10195  TIP3      OH2            25.4944644846      -28.6964203423      -27.4755476997  TIP3      9995            0.0000000000
     54900     10195  TIP3      H1             24.6519574923      -29.0868421654      -27.8165778341  TIP3      9995            0.0000000000
     54901     10195  TIP3      H2             25.2223278637      -28.5170116206      -26.5522951762  TIP3      9995            0.0000000000
     54902     10196  TIP3      OH2            29.2947663485      -35.8489850667      -29.2741676629  TIP3      9996            0.0000000000
     54903     10196  TIP3      H1             28.3513178114      -35.6721323980      -29.4523229335  TIP3      9996            0.0000000000
     54904     10196  TIP3      H2             29.6479822651      -34.9837252287      -28.9689076336  TIP3      9996            0.0000000000
     54905     10197  TIP3      OH2            30.0386554061      -33.9226940304      -27.7195971195  TIP3      9997            0.0000000000
     54906     10197  TIP3      H1             30.9116901264      -34.0216319631      -27.2816477212  TIP3      9997            0.0000000000
     54907     10197  TIP3      H2             30.1302972081      -33.0829705571      -28.1987739693  TIP3      9997            0.0000000000
     54908     10198  TIP3      OH2            27.5554396362      -27.1777149893      -28.4567217426  TIP3      9998            0.0000000000
     54909     10198  TIP3      H1             27.2047881160      -26.3375168331      -28.0909811595  TIP3      9998            0.0000000000
     54910     10198  TIP3      H2             26.8248153820      -27.7966574557      -28.2230049902  TIP3      9998            0.0000000000
     54911     10199  TIP3      OH2            34.9363538573      -33.7767741217      -27.9069626502  TIP3      9999            0.0000000000
     54912     10199  TIP3      H1             34.3803912559      -34.0791409364      -28.6504732090  TIP3      9999            0.0000000000
     54913     10199  TIP3      H2             35.0061796443      -32.8300596383      -28.1726829818  TIP3      9999            0.0000000000
     54914     10200  TIP3      OH2            33.2422125575      -24.9303991933      -27.5004632513  TIP3      10000           0.0000000000
     54915     10200  TIP3      H1             32.8638110971      -25.7592087903      -27.1718651066  TIP3      10000           0.0000000000
     54916     10200  TIP3      H2             33.5710829498      -25.1563273368      -28.3887572208  TIP3      10000           0.0000000000
     54917     10201  TIP3      OH2            22.9417330968      -25.7024144718      -24.1874809099  TIP3      10001           0.0000000000
     54918     10201  TIP3      H1             23.4680070388      -24.9893319069      -24.5629257301  TIP3      10001           0.0000000000
     54919     10201  TIP3      H2             22.1191030099      -25.6924446813      -24.6910923698  TIP3      10001           0.0000000000
     54920     10202  TIP3      OH2            18.6970961896      -30.9399486473      -29.8492960942  TIP3      10002           0.0000000000
     54921     10202  TIP3      H1             19.2744912962      -30.3550460102      -29.3004498842  TIP3      10002           0.0000000000
     54922     10202  TIP3      H2             17.8603191675      -30.6640921669      -29.4347098658  TIP3      10002           0.0000000000
     54923     10203  TIP3      OH2            24.5656615590      -28.1134706271      -24.5136613007  TIP3      10003           0.0000000000
     54924     10203  TIP3      H1             24.1258582166      -27.2605750305      -24.6969985133  TIP3      10003           0.0000000000
     54925     10203  TIP3      H2             23.7095207617      -28.5735296959      -24.4139944329  TIP3      10003           0.0000000000
     54926     10204  TIP3      OH2            23.0883637881      -23.0617502355      -25.3381156453  TIP3      10004           0.0000000000
     54927     10204  TIP3      H1             22.1307489876      -23.0578794299      -25.1265382648  TIP3      10004           0.0000000000
     54928     10204  TIP3      H2             23.4270964443      -22.2791228187      -24.8613188082  TIP3      10004           0.0000000000
     54929     10205  TIP3      OH2            30.6865112115      -26.8685418050      -29.6673855636  TIP3      10005           0.0000000000
     54930     10205  TIP3      H1             30.9797138392      -27.3459716369      -28.8648573695  TIP3      10005           0.0000000000
     54931     10205  TIP3      H2             29.7329491473      -27.0555586526      -29.5886045856  TIP3      10005           0.0000000000
     54932     10206  TIP3      OH2            35.1475156466      -22.5211502373      -29.3947992766  TIP3      10006           0.0000000000
     54933     10206  TIP3      H1             35.8198920959      -21.8574224331      -29.6351834800  TIP3      10006           0.0000000000
     54934     10206  TIP3      H2             34.4255093124      -21.9100802002      -29.1299324243  TIP3      10006           0.0000000000
     54935     10207  TIP3      OH2            31.4635550022      -28.2386176215      -27.4269144139  TIP3      10007           0.0000000000
     54936     10207  TIP3      H1             31.2186129481      -29.0188170220      -26.8856818478  TIP3      10007           0.0000000000
     54937     10207  TIP3      H2             32.4172559764      -28.1980347094      -27.2462943184  TIP3      10007           0.0000000000
     54938     10208  TIP3      OH2            24.8107386870      -25.8025082067      -31.1748187090  TIP3      10008           0.0000000000
     54939     10208  TIP3      H1             24.9103146351      -26.5681113002      -31.7624090291  TIP3      10008           0.0000000000
     54940     10208  TIP3      H2             24.3614468336      -26.2281208127      -30.4067036595  TIP3      10008           0.0000000000
     54941     10209  TIP3      OH2            23.6766995349      -26.2632569158      -28.7434759444  TIP3      10009           0.0000000000
     54942     10209  TIP3      H1             23.7718313308      -26.8061510857      -27.9394617476  TIP3      10009           0.0000000000
     54943     10209  TIP3      H2             23.6521998517      -25.3572643521      -28.3728656494  TIP3      10009           0.0000000000
     54944     10210  TIP3      OH2            20.1087517665      -28.9812896909      -28.4356621350  TIP3      10010           0.0000000000
     54945     10210  TIP3      H1             19.4597726956      -28.7503492265      -27.7140466271  TIP3      10010           0.0000000000
     54946     10210  TIP3      H2             20.6906347313      -28.2110422042      -28.4175492304  TIP3      10010           0.0000000000
     54947     10211  TIP3      OH2            28.7894474023      -36.8162373944      -26.8393056319  TIP3      10011           0.0000000000
     54948     10211  TIP3      H1             28.9198071948      -36.2779457675      -27.6502587748  TIP3      10011           0.0000000000
     54949     10211  TIP3      H2             29.2560205145      -36.2754662723      -26.1761235512  TIP3      10011           0.0000000000
     54950     10212  TIP3      OH2            26.4072033826      -24.5992518655      -28.0219876245  TIP3      10012           0.0000000000
     54951     10212  TIP3      H1             25.5656745425      -24.0980047844      -27.9524632339  TIP3      10012           0.0000000000
     54952     10212  TIP3      H2             26.9277819575      -24.0469492047      -28.6194759602  TIP3      10012           0.0000000000
     54953     10213  TIP3      OH2            25.9304777871      -35.0082509092      -26.0256778100  TIP3      10013           0.0000000000
     54954     10213  TIP3      H1             26.7229205424      -34.4484758249      -25.9462804015  TIP3      10013           0.0000000000
     54955     10213  TIP3      H2             25.6819098951      -35.1490457608      -25.0935040939  TIP3      10013           0.0000000000
     54956     10214  TIP3      OH2            26.7235134275      -37.9494291043      -25.0780211685  TIP3      10014           0.0000000000
     54957     10214  TIP3      H1             26.4565143029      -37.2825826035      -24.4281166803  TIP3      10014           0.0000000000
     54958     10214  TIP3      H2             27.4335939402      -37.4698935017      -25.5672400694  TIP3      10014           0.0000000000
     54959     10215  TIP3      OH2            23.8130307082      -23.5697190790      -28.0218951343  TIP3      10015           0.0000000000
     54960     10215  TIP3      H1             23.8860342838      -22.7415905921      -28.5524853884  TIP3      10015           0.0000000000
     54961     10215  TIP3      H2             23.5369292868      -23.2293968719      -27.1394559912  TIP3      10015           0.0000000000
     54962     10216  TIP3      OH2            22.4078789895      -36.8105835282      -28.4371502878  TIP3      10016           0.0000000000
     54963     10216  TIP3      H1             22.3818839656      -35.9190563808      -28.0360959474  TIP3      10016           0.0000000000
     54964     10216  TIP3      H2             23.3122088878      -37.0757400436      -28.1679964854  TIP3      10016           0.0000000000
     54965     10217  TIP3      OH2            31.3167143265      -32.3608601057      -22.0865642334  TIP3      10017           0.0000000000
     54966     10217  TIP3      H1             30.4411217791      -32.7605793139      -22.2078808238  TIP3      10017           0.0000000000
     54967     10217  TIP3      H2             31.7151354064      -32.9816191028      -21.4375023189  TIP3      10017           0.0000000000
     54968     10218  TIP3      OH2            20.6525203607      -26.3307238528      -29.4658363502  TIP3      10018           0.0000000000
     54969     10218  TIP3      H1             21.3480786476      -25.8330941762      -29.0226213013  TIP3      10018           0.0000000000
     54970     10218  TIP3      H2             21.1861650494      -26.9205419197      -30.0279673763  TIP3      10018           0.0000000000
     54971     10219  TIP3      OH2            19.0181185145      -33.7508796341      -30.2582030068  TIP3      10019           0.0000000000
     54972     10219  TIP3      H1             19.0329588858      -32.7970531839      -30.0071784907  TIP3      10019           0.0000000000
     54973     10219  TIP3      H2             18.1087498891      -33.8916471324      -30.5194202753  TIP3      10019           0.0000000000
     54974     10220  TIP3      OH2            19.8839434891      -38.8185308263      -21.5342787016  TIP3      10020           0.0000000000
     54975     10220  TIP3      H1             19.6301290598      -38.8654136985      -22.4791903239  TIP3      10020           0.0000000000
     54976     10220  TIP3      H2             19.5301434421      -39.6668857887      -21.2663334741  TIP3      10020           0.0000000000
     54977     10221  TIP3      OH2            18.8121441261      -24.7900874182      -25.2263349739  TIP3      10021           0.0000000000
     54978     10221  TIP3      H1             17.8939034789      -24.6684010686      -25.4940842938  TIP3      10021           0.0000000000
     54979     10221  TIP3      H2             19.2568377391      -24.7065999089      -26.0926065210  TIP3      10021           0.0000000000
     54980     10222  TIP3      OH2            26.8061836893      -23.9461512839      -31.0441225140  TIP3      10022           0.0000000000
     54981     10222  TIP3      H1             26.1133811717      -24.6088888550      -30.8217799582  TIP3      10022           0.0000000000
     54982     10222  TIP3      H2             27.5233203390      -24.5485090966      -31.2953110393  TIP3      10022           0.0000000000
     54983     10223  TIP3      OH2            31.3638807994      -24.2056803710      -30.8604985577  TIP3      10023           0.0000000000
     54984     10223  TIP3      H1             31.6590353430      -24.9829744667      -30.3592932134  TIP3      10023           0.0000000000
     54985     10223  TIP3      H2             32.1259340925      -23.9843337431      -31.4143368491  TIP3      10023           0.0000000000
     54986     10224  TIP3      OH2            22.2368371270      -28.2749025839      -31.0701032168  TIP3      10024           0.0000000000
     54987     10224  TIP3      H1             22.3610708386      -29.0014752955      -30.4328333761  TIP3      10024           0.0000000000
     54988     10224  TIP3      H2             23.0129606928      -28.3955428934      -31.6437625497  TIP3      10024           0.0000000000
     54989     10225  TIP3      OH2            27.6817735581      -27.1562167602      -31.2660094378  TIP3      10025           0.0000000000
     54990     10225  TIP3      H1             27.4106292076      -27.0763741539      -30.3374905482  TIP3      10025           0.0000000000
     54991     10225  TIP3      H2             27.4929142364      -28.1137654694      -31.4113091941  TIP3      10025           0.0000000000
     54992     10226  TIP3      OH2            23.4886237397      -30.2633823513      -28.6366142930  TIP3      10026           0.0000000000
     54993     10226  TIP3      H1             22.9299600373      -30.7386650616      -27.9874050042  TIP3      10026           0.0000000000
     54994     10226  TIP3      H2             23.7469832471      -30.9580770667      -29.2718339654  TIP3      10026           0.0000000000
     54995     10227  TIP3      OH2            24.5302147403      -32.0310466795      -30.4180763710  TIP3      10027           0.0000000000
     54996     10227  TIP3      H1             24.3615840586      -32.1080997331      -31.3776982575  TIP3      10027           0.0000000000
     54997     10227  TIP3      H2             25.5062409234      -31.9731892734      -30.3558981726  TIP3      10027           0.0000000000
     54998     10228  TIP3      OH2            33.8565304693      -29.7017616262      -30.9921096122  TIP3      10028           0.0000000000
     54999     10228  TIP3      H1             33.6600692330      -30.0788439245      -31.8637782107  TIP3      10028           0.0000000000
     55000     10228  TIP3      H2             33.9440031466      -28.7409629870      -31.1918838799  TIP3      10028           0.0000000000
     55001     10229  TIP3      OH2            24.3602716678      -21.3164173341      -29.3383211148  TIP3      10029           0.0000000000
     55002     10229  TIP3      H1             25.3278415961      -21.2394758052      -29.2706009050  TIP3      10029           0.0000000000
     55003     10229  TIP3      H2             24.2150865640      -20.7197337261      -30.0811699084  TIP3      10029           0.0000000000
     55004     10230  TIP3      OH2            17.8979732481      -26.6942569210      -29.9412714610  TIP3      10030           0.0000000000
     55005     10230  TIP3      H1             18.8533777007      -26.6846690199      -29.6612000857  TIP3      10030           0.0000000000
     55006     10230  TIP3      H2             17.9627252491      -27.4149142354      -30.6098416450  TIP3      10030           0.0000000000
     55007     10231  TIP3      OH2            16.6501098863      -21.3948324298      -24.9196305612  TIP3      10031           0.0000000000
     55008     10231  TIP3      H1             15.8960291688      -21.8199005795      -25.3960109138  TIP3      10031           0.0000000000
     55009     10231  TIP3      H2             16.7856067257      -22.0227809123      -24.1860855357  TIP3      10031           0.0000000000
     55010     10232  TIP3      OH2            17.5940322033      -23.1895812334      -23.0484263136  TIP3      10032           0.0000000000
     55011     10232  TIP3      H1             17.1793756122      -24.0604053151      -22.9054209969  TIP3      10032           0.0000000000
     55012     10232  TIP3      H2             17.6997317800      -22.8842768078      -22.1460592648  TIP3      10032           0.0000000000
     55013     10233  TIP3      OH2            34.3451361014      -28.7755271677      -27.0193657788  TIP3      10033           0.0000000000
     55014     10233  TIP3      H1             35.2240315131      -28.3939499574      -26.8576450044  TIP3      10033           0.0000000000
     55015     10233  TIP3      H2             34.3655426796      -29.5163251036      -26.3744922249  TIP3      10033           0.0000000000
     55016     10234  TIP3      OH2            34.7788660832      -30.7327549185      -25.1741331239  TIP3      10034           0.0000000000
     55017     10234  TIP3      H1             34.0128819964      -31.2146335351      -24.7823563139  TIP3      10034           0.0000000000
     55018     10234  TIP3      H2             35.3294417410      -30.5475696271      -24.3994034585  TIP3      10034           0.0000000000
     55019     10235  TIP3      OH2            35.0559057583      -30.8875686876      -28.7559120414  TIP3      10035           0.0000000000
     55020     10235  TIP3      H1             34.5000726726      -30.5477801347      -29.4875105857  TIP3      10035           0.0000000000
     55021     10235  TIP3      H2             34.9748116578      -30.1568246031      -28.1186093380  TIP3      10035           0.0000000000
     55022     10236  TIP3      OH2            33.4187244731      -33.6558572925      -30.2569462906  TIP3      10036           0.0000000000
     55023     10236  TIP3      H1             33.5102002580      -32.9981428894      -30.9567791514  TIP3      10036           0.0000000000
     55024     10236  TIP3      H2             33.2384178231      -34.4839521528      -30.7469093031  TIP3      10036           0.0000000000
     55025     10237  TIP3      OH2            32.6219665720      -32.2524300165      -24.5550372029  TIP3      10037           0.0000000000
     55026     10237  TIP3      H1             32.4083385245      -33.1945351333      -24.6364219853  TIP3      10037           0.0000000000
     55027     10237  TIP3      H2             32.2147967781      -32.0400489806      -23.6912322719  TIP3      10037           0.0000000000
     55028     10238  TIP3      OH2            17.5331482376      -30.1957604391      -20.5652644410  TIP3      10038           0.0000000000
     55029     10238  TIP3      H1             17.7251255620      -30.2342369473      -21.5231260816  TIP3      10038           0.0000000000
     55030     10238  TIP3      H2             18.3995580448      -30.2898948179      -20.2002766120  TIP3      10038           0.0000000000
     55031     10239  TIP3      OH2            32.6596517983      -36.1906160346      -31.0893981504  TIP3      10039           0.0000000000
     55032     10239  TIP3      H1             33.2617481402      -36.6576418515      -30.4781895205  TIP3      10039           0.0000000000
     55033     10239  TIP3      H2             31.8064014760      -36.6498122423      -30.9927816603  TIP3      10039           0.0000000000
     55034     10240  TIP3      OH2            32.2200208968      -34.6269288298      -26.1913690709  TIP3      10040           0.0000000000
     55035     10240  TIP3      H1             32.5303863844      -35.5462507714      -26.0181080531  TIP3      10040           0.0000000000
     55036     10240  TIP3      H2             33.0542927509      -34.2316692566      -26.4805230988  TIP3      10040           0.0000000000
     55037     10241  TIP3      OH2            32.9156922076      -34.1270935593      -20.7127737819  TIP3      10041           0.0000000000
     55038     10241  TIP3      H1             33.8354295210      -33.8661245992      -20.6791666774  TIP3      10041           0.0000000000
     55039     10241  TIP3      H2             32.6423609674      -34.0038596742      -19.7818794072  TIP3      10041           0.0000000000
     55040     10242  TIP3      OH2            32.8488017542      -37.3410793029      -26.0662705261  TIP3      10042           0.0000000000
     55041     10242  TIP3      H1             33.0967748777      -37.8122389295      -25.2388909144  TIP3      10042           0.0000000000
     55042     10242  TIP3      H2             32.3221051611      -38.0160906429      -26.5478686972  TIP3      10042           0.0000000000
     55043     10243  TIP3      OH2            34.7355265166      -37.3180501998      -29.4992131096  TIP3      10043           0.0000000000
     55044     10243  TIP3      H1             35.1121913446      -38.0439606127      -30.0570133239  TIP3      10043           0.0000000000
     55045     10243  TIP3      H2             35.4431005916      -36.6611838424      -29.5014155642  TIP3      10043           0.0000000000
     55046     10244  TIP3      OH2            17.0419044572      -37.3009529003      -26.3866750910  TIP3      10044           0.0000000000
     55047     10244  TIP3      H1             16.1070670014      -37.1218281141      -26.5797090085  TIP3      10044           0.0000000000
     55048     10244  TIP3      H2             17.4706906137      -36.8409105199      -27.1331969081  TIP3      10044           0.0000000000
     55049     10245  TIP3      OH2            31.7916008981      -22.3549995418      -24.4965037695  TIP3      10045           0.0000000000
     55050     10245  TIP3      H1             32.4643229623      -22.6485950039      -25.1350573008  TIP3      10045           0.0000000000
     55051     10245  TIP3      H2             32.2908496495      -21.8580344177      -23.8274414200  TIP3      10045           0.0000000000
     55052     10246  TIP3      OH2            21.0756327419      -23.8369093149      -22.0947885894  TIP3      10046           0.0000000000
     55053     10246  TIP3      H1             20.9924810020      -24.7929118451      -21.9314177044  TIP3      10046           0.0000000000
     55054     10246  TIP3      H2             21.8995285486      -23.7350724266      -21.5661830539  TIP3      10046           0.0000000000
     55055     10247  TIP3      OH2            27.2108990531      -37.7082964603      -22.0696325254  TIP3      10047           0.0000000000
     55056     10247  TIP3      H1             26.4872447542      -38.2866088987      -21.7496897452  TIP3      10047           0.0000000000
     55057     10247  TIP3      H2             27.6548505317      -38.2422934662      -22.7228168845  TIP3      10047           0.0000000000
     55058     10248  TIP3      OH2            33.9197181926      -38.4065162381      -23.7489603273  TIP3      10048           0.0000000000
     55059     10248  TIP3      H1             34.5959715254      -39.0582588487      -24.0457559080  TIP3      10048           0.0000000000
     55060     10248  TIP3      H2             34.4444593302      -37.5856406353      -23.6582927106  TIP3      10048           0.0000000000
     55061     10249  TIP3      OH2            19.4604282392      -39.1260923596      -24.2334889948  TIP3      10049           0.0000000000
     55062     10249  TIP3      H1             18.7143592902      -39.3135480858      -24.8132298993  TIP3      10049           0.0000000000
     55063     10249  TIP3      H2             19.9586605355      -39.9539671539      -24.3069637639  TIP3      10049           0.0000000000
     55064     10250  TIP3      OH2            18.3690257527      -39.2893988445      -28.4139179910  TIP3      10050           0.0000000000
     55065     10250  TIP3      H1             18.7375056556      -38.6865771014      -29.0785921103  TIP3      10050           0.0000000000
     55066     10250  TIP3      H2             17.6837962749      -38.7328847753      -28.0228532173  TIP3      10050           0.0000000000
     55067     10251  TIP3      OH2            23.8924382870      -38.8082939109      -24.5938613216  TIP3      10051           0.0000000000
     55068     10251  TIP3      H1             24.8545845389      -38.6900823581      -24.5812994031  TIP3      10051           0.0000000000
     55069     10251  TIP3      H2             23.8453796004      -39.2073784438      -23.7246318545  TIP3      10051           0.0000000000
     55070     10252  TIP3      OH2            30.9303725356      -39.0541791428      -27.0870620087  TIP3      10052           0.0000000000
     55071     10252  TIP3      H1             30.1741955036      -38.4764356175      -27.2746836865  TIP3      10052           0.0000000000
     55072     10252  TIP3      H2             30.5998672587      -39.9592078869      -27.0104280982  TIP3      10052           0.0000000000
     55073     10253  TIP3      OH2            18.1741283303      -23.3402321992      -27.4143370123  TIP3      10053           0.0000000000
     55074     10253  TIP3      H1             17.5660210689      -23.4335909507      -28.1850578524  TIP3      10053           0.0000000000
     55075     10253  TIP3      H2             18.1777493810      -22.3790029069      -27.4126002732  TIP3      10053           0.0000000000
     55076     10254  TIP3      OH2            20.0931536999      -37.4665419350      -29.9855578676  TIP3      10054           0.0000000000
     55077     10254  TIP3      H1             20.6553309259      -37.9933233706      -30.5778113517  TIP3      10054           0.0000000000
     55078     10254  TIP3      H2             20.7547441167      -37.0785893554      -29.3736358059  TIP3      10054           0.0000000000
     55079     10255  TIP3      OH2            25.0765599835      -37.1511735941      -27.5264777984  TIP3      10055           0.0000000000
     55080     10255  TIP3      H1             25.4119859561      -37.7199436460      -26.8172389036  TIP3      10055           0.0000000000
     55081     10255  TIP3      H2             25.1905292786      -36.2706472589      -27.1066717461  TIP3      10055           0.0000000000
     55082     10256  TIP3      OH2            27.0752660404      -22.0659862979      -29.1485969627  TIP3      10056           0.0000000000
     55083     10256  TIP3      H1             27.9936722836      -21.8458813484      -29.3698472534  TIP3      10056           0.0000000000
     55084     10256  TIP3      H2             26.8509723921      -22.5930236288      -29.9434988298  TIP3      10056           0.0000000000
     55085     10257  TIP3      OH2            33.8231116656      -22.5684394746      -26.4371398442  TIP3      10057           0.0000000000
     55086     10257  TIP3      H1             33.5878173896      -23.3528842604      -26.9861560918  TIP3      10057           0.0000000000
     55087     10257  TIP3      H2             33.6898359858      -21.8353869728      -27.0718686501  TIP3      10057           0.0000000000
     55088     10258  TIP3      OH2            19.9879416084      -22.4004840794      -30.5223727726  TIP3      10058           0.0000000000
     55089     10258  TIP3      H1             19.7440102975      -22.1428449344      -29.6296115172  TIP3      10058           0.0000000000
     55090     10258  TIP3      H2             20.7829272390      -22.9599053298      -30.3970991248  TIP3      10058           0.0000000000
     55091     10259  TIP3      OH2            36.1888312302      -33.0560990725      -25.3236696508  TIP3      10059           0.0000000000
     55092     10259  TIP3      H1             35.8158124540      -32.1569375256      -25.4409686607  TIP3      10059           0.0000000000
     55093     10259  TIP3      H2             35.6234973713      -33.5573189806      -25.9177388979  TIP3      10059           0.0000000000
     55094     10260  TIP3      OH2            39.2331804909      -34.9336850269      -20.8748162508  TIP3      10060           0.0000000000
     55095     10260  TIP3      H1             39.9009294456      -34.3440556777      -20.4982164942  TIP3      10060           0.0000000000
     55096     10260  TIP3      H2             39.7790652299      -35.4068327518      -21.5341820278  TIP3      10060           0.0000000000
     55097     10261  TIP3      OH2            36.9671497689      -27.5605973983      -26.9952623783  TIP3      10061           0.0000000000
     55098     10261  TIP3      H1             36.6530195374      -27.2143922661      -27.8429713456  TIP3      10061           0.0000000000
     55099     10261  TIP3      H2             37.0379834888      -26.7364427570      -26.4747825195  TIP3      10061           0.0000000000
     55100     10262  TIP3      OH2            39.0636830440      -23.2503517081      -24.6933027898  TIP3      10062           0.0000000000
     55101     10262  TIP3      H1             39.3589292688      -23.2532758855      -23.7634407929  TIP3      10062           0.0000000000
     55102     10262  TIP3      H2             38.1162051374      -23.3303945428      -24.7426455313  TIP3      10062           0.0000000000
     55103     10263  TIP3      OH2            35.6175819339      -36.1684666432      -23.7501954528  TIP3      10063           0.0000000000
     55104     10263  TIP3      H1             36.2533741950      -36.2936078606      -23.0129141482  TIP3      10063           0.0000000000
     55105     10263  TIP3      H2             36.0537461245      -36.6529514785      -24.4686355107  TIP3      10063           0.0000000000
     55106     10264  TIP3      OH2            36.8055388722      -35.5625360516      -28.3688548401  TIP3      10064           0.0000000000
     55107     10264  TIP3      H1             37.3198089040      -34.9415998640      -28.9187644477  TIP3      10064           0.0000000000
     55108     10264  TIP3      H2             36.1478762619      -34.9379735843      -27.9943408714  TIP3      10064           0.0000000000
     55109     10265  TIP3      OH2            38.5809982994      -34.3090365056      -24.7595578643  TIP3      10065           0.0000000000
     55110     10265  TIP3      H1             37.6482624272      -34.2769895038      -25.0119619282  TIP3      10065           0.0000000000
     55111     10265  TIP3      H2             38.8869375395      -35.2288665048      -24.8819866582  TIP3      10065           0.0000000000
     55112     10266  TIP3      OH2            39.2691955313      -29.2492317696      -21.8880821119  TIP3      10066           0.0000000000
     55113     10266  TIP3      H1             40.0830735875      -29.2358771878      -22.4050176827  TIP3      10066           0.0000000000
     55114     10266  TIP3      H2             39.4941801598      -29.9349314587      -21.2407311348  TIP3      10066           0.0000000000
     55115     10267  TIP3      OH2            37.5752087954      -30.9625496461      -29.7563100509  TIP3      10067           0.0000000000
     55116     10267  TIP3      H1             38.1316547471      -30.2957295464      -29.2999441732  TIP3      10067           0.0000000000
     55117     10267  TIP3      H2             36.6637711306      -30.6740154881      -29.5019944652  TIP3      10067           0.0000000000
     55118     10268  TIP3      OH2            38.9580154076      -29.0456800460      -28.3141784333  TIP3      10068           0.0000000000
     55119     10268  TIP3      H1             38.3139368279      -28.7171067614      -27.6499850199  TIP3      10068           0.0000000000
     55120     10268  TIP3      H2             39.4345207952      -28.2314203275      -28.4854282452  TIP3      10068           0.0000000000
     55121     10269  TIP3      OH2            39.2679972885      -26.3503700675      -29.2785214062  TIP3      10069           0.0000000000
     55122     10269  TIP3      H1             39.9797647651      -25.7418180161      -29.0185498860  TIP3      10069           0.0000000000
     55123     10269  TIP3      H2             39.8373353419      -26.8129956274      -29.9282553861  TIP3      10069           0.0000000000
     55124     10270  TIP3      OH2            37.8990223550      -33.7230190636      -30.2358402052  TIP3      10070           0.0000000000
     55125     10270  TIP3      H1             37.8572363083      -32.7634412495      -30.0508687592  TIP3      10070           0.0000000000
     55126     10270  TIP3      H2             37.0149333534      -33.9102653394      -30.5628558647  TIP3      10070           0.0000000000
     55127     10271  TIP3      OH2            38.6941989621      -38.8205106926      -21.5184500797  TIP3      10071           0.0000000000
     55128     10271  TIP3      H1             38.5166314055      -38.8524839644      -22.4829684853  TIP3      10071           0.0000000000
     55129     10271  TIP3      H2             38.4401825087      -39.7227336279      -21.3335627121  TIP3      10071           0.0000000000
     55130     10272  TIP3      OH2            37.5056633897      -25.1086295490      -25.3898636907  TIP3      10072           0.0000000000
     55131     10272  TIP3      H1             36.7175369998      -24.5727067250      -25.4776398194  TIP3      10072           0.0000000000
     55132     10272  TIP3      H2             38.1333498227      -24.6437052646      -25.9874400933  TIP3      10072           0.0000000000
     55133     10273  TIP3      OH2            36.7628110715      -26.7073586812      -29.9255928802  TIP3      10073           0.0000000000
     55134     10273  TIP3      H1             37.7167062602      -26.6506210607      -29.6800476393  TIP3      10073           0.0000000000
     55135     10273  TIP3      H2             36.8115910831      -27.4134041688      -30.6079380586  TIP3      10073           0.0000000000
     55136     10274  TIP3      OH2            35.5228622556      -21.3808526208      -24.8476482048  TIP3      10074           0.0000000000
     55137     10274  TIP3      H1             34.8336039576      -21.8322782449      -25.3952728856  TIP3      10074           0.0000000000
     55138     10274  TIP3      H2             35.8259342077      -22.0817846912      -24.2846438096  TIP3      10074           0.0000000000
     55139     10275  TIP3      OH2            37.1983816401      -36.5660885209      -21.5567028425  TIP3      10075           0.0000000000
     55140     10275  TIP3      H1             37.6882221917      -37.3845279199      -21.3320682341  TIP3      10075           0.0000000000
     55141     10275  TIP3      H2             37.7774107118      -35.9128144274      -21.1495334657  TIP3      10075           0.0000000000
     55142     10276  TIP3      OH2            35.9324134082      -37.3005955378      -26.4166080344  TIP3      10076           0.0000000000
     55143     10276  TIP3      H1             34.9916385613      -37.1144157220      -26.5701280277  TIP3      10076           0.0000000000
     55144     10276  TIP3      H2             36.3365009130      -36.8121467284      -27.1495222323  TIP3      10076           0.0000000000
     55145     10277  TIP3      OH2            38.1606433372      -38.9801995578      -24.3158120093  TIP3      10077           0.0000000000
     55146     10277  TIP3      H1             37.4709687241      -39.3582322330      -24.8646586841  TIP3      10077           0.0000000000
     55147     10277  TIP3      H2             38.7725518740      -39.7506144195      -24.1741916506  TIP3      10077           0.0000000000
     55148     10278  TIP3      OH2            37.2449072752      -39.2801991260      -28.3909420726  TIP3      10078           0.0000000000
     55149     10278  TIP3      H1             37.5840803532      -38.6898925965      -29.0883850845  TIP3      10078           0.0000000000
     55150     10278  TIP3      H2             36.5459767027      -38.7326839965      -28.0041846383  TIP3      10078           0.0000000000
     55151     10279  TIP3      OH2            37.0245751118      -23.3930259779      -27.4967881458  TIP3      10079           0.0000000000
     55152     10279  TIP3      H1             36.3600383966      -23.3855861562      -28.2114517847  TIP3      10079           0.0000000000
     55153     10279  TIP3      H2             37.0600960654      -22.4396613563      -27.3240766396  TIP3      10079           0.0000000000
     55154     10280  TIP3      OH2            38.9812132656      -37.4137752638      -29.9538701915  TIP3      10080           0.0000000000
     55155     10280  TIP3      H1             39.5103816653      -37.9807214430      -30.5303492307  TIP3      10080           0.0000000000
     55156     10280  TIP3      H2             39.6424811642      -37.0349286410      -29.3610251714  TIP3      10080           0.0000000000
     55157     10281  TIP3      OH2            38.8294127999      -22.4552467251      -30.5223204122  TIP3      10081           0.0000000000
     55158     10281  TIP3      H1             38.5928656426      -22.0792387038      -29.6602160974  TIP3      10081           0.0000000000
     55159     10281  TIP3      H2             39.6563750786      -22.9167363602      -30.3540775388  TIP3      10081           0.0000000000
     55160     10282  TIP3      OH2           -27.9526084834      -11.0662130303      -24.3418328043  TIP3      10082           0.0000000000
     55161     10282  TIP3      H1            -28.0073865962      -10.0942873874      -24.4333470410  TIP3      10082           0.0000000000
     55162     10282  TIP3      H2            -28.6725056898      -11.3531841808      -24.9361175173  TIP3      10082           0.0000000000
     55163     10283  TIP3      OH2           -39.0955878075      -14.0802859646      -25.5198075612  TIP3      10083           0.0000000000
     55164     10283  TIP3      H1            -39.6095774246      -13.2812803260      -25.3315296493  TIP3      10083           0.0000000000
     55165     10283  TIP3      H2            -39.8056515313      -14.6924446488      -25.7707123578  TIP3      10083           0.0000000000
     55166     10284  TIP3      OH2           -38.4458542561      -11.9545411444      -23.2141204697  TIP3      10084           0.0000000000
     55167     10284  TIP3      H1            -38.2637872589      -12.7453859576      -22.7030414053  TIP3      10084           0.0000000000
     55168     10284  TIP3      H2            -37.7240877344      -11.8796954611      -23.8337672754  TIP3      10084           0.0000000000
     55169     10285  TIP3      OH2           -28.2778239912       -3.7388545529      -22.3467376391  TIP3      10085           0.0000000000
     55170     10285  TIP3      H1            -27.6309135474       -4.4312776292      -22.6186914617  TIP3      10085           0.0000000000
     55171     10285  TIP3      H2            -28.4836794476       -3.9786824304      -21.4280020177  TIP3      10085           0.0000000000
     55172     10286  TIP3      OH2           -30.6576034604       -9.3705993394      -20.6032785913  TIP3      10086           0.0000000000
     55173     10286  TIP3      H1            -30.4055354089      -10.1528203430      -21.0863269362  TIP3      10086           0.0000000000
     55174     10286  TIP3      H2            -30.0238758502       -9.3371570918      -19.8822571596  TIP3      10086           0.0000000000
     55175     10287  TIP3      OH2           -34.3930865801      -16.8624600180      -22.8516863999  TIP3      10087           0.0000000000
     55176     10287  TIP3      H1            -34.3680905232      -16.0166616805      -23.3277841544  TIP3      10087           0.0000000000
     55177     10287  TIP3      H2            -34.8458006953      -17.4320764670      -23.5070798336  TIP3      10087           0.0000000000
     55178     10288  TIP3      OH2           -26.6795638981      -16.8539716927      -24.5910255519  TIP3      10088           0.0000000000
     55179     10288  TIP3      H1            -26.0963058613      -17.0954757827      -23.8505395447  TIP3      10088           0.0000000000
     55180     10288  TIP3      H2            -26.1545783415      -16.1811235034      -25.0313042401  TIP3      10088           0.0000000000
     55181     10289  TIP3      OH2           -32.6715276843      -12.9289803721      -22.8947319972  TIP3      10089           0.0000000000
     55182     10289  TIP3      H1            -32.0198723445      -13.4395099347      -22.4109398020  TIP3      10089           0.0000000000
     55183     10289  TIP3      H2            -33.2267910697      -13.6105339754      -23.3043396789  TIP3      10089           0.0000000000
     55184     10290  TIP3      OH2           -28.2132517975       -8.4833058236      -25.2644854225  TIP3      10090           0.0000000000
     55185     10290  TIP3      H1            -28.5321938570       -8.8021604723      -26.1195384918  TIP3      10090           0.0000000000
     55186     10290  TIP3      H2            -28.5648270189       -7.5632202091      -25.2417674912  TIP3      10090           0.0000000000
     55187     10291  TIP3      OH2           -24.9702826863      -17.3829606161      -22.4331149946  TIP3      10091           0.0000000000
     55188     10291  TIP3      H1            -25.1250232823      -18.2603411945      -22.0658077604  TIP3      10091           0.0000000000
     55189     10291  TIP3      H2            -24.1893133979      -17.0576210904      -21.9858778247  TIP3      10091           0.0000000000
     55190     10292  TIP3      OH2           -38.4346021126       -8.6696876319      -27.0071900526  TIP3      10092           0.0000000000
     55191     10292  TIP3      H1            -38.7898592811       -8.3515564194      -27.8336565783  TIP3      10092           0.0000000000
     55192     10292  TIP3      H2            -38.4466004748       -7.8832254519      -26.4367768849  TIP3      10092           0.0000000000
     55193     10293  TIP3      OH2           -26.6057194026       -5.2732872097      -23.6315959351  TIP3      10093           0.0000000000
     55194     10293  TIP3      H1            -26.1937934189       -5.9558426245      -24.1920048689  TIP3      10093           0.0000000000
     55195     10293  TIP3      H2            -26.2224375428       -4.4495222037      -24.0080772541  TIP3      10093           0.0000000000
     55196     10294  TIP3      OH2           -25.4250750147       -7.3354819832      -25.1034980553  TIP3      10094           0.0000000000
     55197     10294  TIP3      H1            -25.7235545825       -8.0133102989      -25.7398667901  TIP3      10094           0.0000000000
     55198     10294  TIP3      H2            -25.3891272636       -7.8197484430      -24.2859840806  TIP3      10094           0.0000000000
     55199     10295  TIP3      OH2           -29.2895637512      -11.8413408084      -26.8320842574  TIP3      10095           0.0000000000
     55200     10295  TIP3      H1            -29.9941521381      -11.2793665506      -27.2125373843  TIP3      10095           0.0000000000
     55201     10295  TIP3      H2            -28.5938791266      -11.7607705239      -27.5077518590  TIP3      10095           0.0000000000
     55202     10296  TIP3      OH2           -29.2229945658      -13.2817232776      -29.8468031644  TIP3      10096           0.0000000000
     55203     10296  TIP3      H1            -28.5221979625      -13.3051158132      -29.1767491138  TIP3      10096           0.0000000000
     55204     10296  TIP3      H2            -28.9177006003      -14.0010002734      -30.4152516134  TIP3      10096           0.0000000000
     55205     10297  TIP3      OH2           -25.8331450590      -11.6082565096      -25.8965949466  TIP3      10097           0.0000000000
     55206     10297  TIP3      H1            -26.6329815989      -11.4398478430      -25.3377212467  TIP3      10097           0.0000000000
     55207     10297  TIP3      H2            -25.4074740469      -12.3475471594      -25.4418152723  TIP3      10097           0.0000000000
     55208     10298  TIP3      OH2           -34.2036202871      -10.9731905665      -24.0304027660  TIP3      10098           0.0000000000
     55209     10298  TIP3      H1            -34.5682416614      -11.3929908849      -24.8432909219  TIP3      10098           0.0000000000
     55210     10298  TIP3      H2            -33.6057264312      -11.6818832645      -23.6797831498  TIP3      10098           0.0000000000
     55211     10299  TIP3      OH2           -26.9792847034      -12.4328736279      -28.2638082483  TIP3      10099           0.0000000000
     55212     10299  TIP3      H1            -26.4202506648      -12.2639793100      -27.4695789563  TIP3      10099           0.0000000000
     55213     10299  TIP3      H2            -26.5280703731      -11.9452394961      -28.9889987875  TIP3      10099           0.0000000000
     55214     10300  TIP3      OH2           -29.2639645482       -5.7275991159      -24.7799951950  TIP3      10100           0.0000000000
     55215     10300  TIP3      H1            -28.8153365707       -5.4054045339      -23.9828434027  TIP3      10100           0.0000000000
     55216     10300  TIP3      H2            -29.8191774505       -4.9749715892      -25.0253515122  TIP3      10100           0.0000000000
     55217     10301  TIP3      OH2           -23.2597695265      -20.7074916996      -28.3663204723  TIP3      10101           0.0000000000
     55218     10301  TIP3      H1            -24.2056216167      -20.5893230315      -28.1275081513  TIP3      10101           0.0000000000
     55219     10301  TIP3      H2            -23.0522895444      -19.8662063195      -28.8070419431  TIP3      10101           0.0000000000
     55220     10302  TIP3      OH2           -35.2678177643      -11.9526292012      -26.4278582382  TIP3      10102           0.0000000000
     55221     10302  TIP3      H1            -35.5917622008      -11.1795409454      -26.9322539723  TIP3      10102           0.0000000000
     55222     10302  TIP3      H2            -35.9235133083      -12.6231307091      -26.6285392053  TIP3      10102           0.0000000000
     55223     10303  TIP3      OH2           -22.1435829491       -6.3575955276      -30.0162067303  TIP3      10103           0.0000000000
     55224     10303  TIP3      H1            -21.9775078649       -5.4139693789      -29.8494202206  TIP3      10103           0.0000000000
     55225     10303  TIP3      H2            -21.2201522557       -6.6699932178      -30.0205410081  TIP3      10103           0.0000000000
     55226     10304  TIP3      OH2           -39.3837923017       -6.5576407573      -20.9095622520  TIP3      10104           0.0000000000
     55227     10304  TIP3      H1            -38.5751791222       -7.0513800093      -20.7136694865  TIP3      10104           0.0000000000
     55228     10304  TIP3      H2            -39.5420100168       -6.1332041162      -20.0720164693  TIP3      10104           0.0000000000
     55229     10305  TIP3      OH2           -29.7907377422       -2.8105204593      -26.3734986325  TIP3      10105           0.0000000000
     55230     10305  TIP3      H1            -29.8988023760       -2.8839207370      -27.3396934712  TIP3      10105           0.0000000000
     55231     10305  TIP3      H2            -29.7901556239       -1.8496144640      -26.2121098835  TIP3      10105           0.0000000000
     55232     10306  TIP3      OH2           -36.1812950162       -3.9252687236      -24.5720922224  TIP3      10106           0.0000000000
     55233     10306  TIP3      H1            -36.0035811014       -4.3378705933      -23.7209839246  TIP3      10106           0.0000000000
     55234     10306  TIP3      H2            -36.9869081687       -4.3803598576      -24.8568865155  TIP3      10106           0.0000000000
     55235     10307  TIP3      OH2           -26.7309617465       -3.5961024475      -29.4025273828  TIP3      10107           0.0000000000
     55236     10307  TIP3      H1            -26.2789240293       -4.3535345732      -29.8367230858  TIP3      10107           0.0000000000
     55237     10307  TIP3      H2            -26.6955600240       -3.8552713258      -28.4568845500  TIP3      10107           0.0000000000
     55238     10308  TIP3      OH2           -27.0379350795       -3.6584904802      -26.6352961154  TIP3      10108           0.0000000000
     55239     10308  TIP3      H1            -27.9951078457       -3.5803469673      -26.4477004259  TIP3      10108           0.0000000000
     55240     10308  TIP3      H2            -26.7997882809       -4.3890381988      -26.0480779335  TIP3      10108           0.0000000000
     55241     10309  TIP3      OH2           -34.2742102385      -19.8260698470      -20.4898086147  TIP3      10109           0.0000000000
     55242     10309  TIP3      H1            -35.1162397881      -19.8580239452      -21.0253089165  TIP3      10109           0.0000000000
     55243     10309  TIP3      H2            -34.2991874285      -18.9101627171      -20.2245605088  TIP3      10109           0.0000000000
     55244     10310  TIP3      OH2           -25.5260983144      -11.4154406797      -30.4522670482  TIP3      10110           0.0000000000
     55245     10310  TIP3      H1            -25.5548497163      -11.6058601875      -31.4202876012  TIP3      10110           0.0000000000
     55246     10310  TIP3      H2            -24.6711895965      -10.9627545991      -30.4058974177  TIP3      10110           0.0000000000
     55247     10311  TIP3      OH2           -29.9366571854      -17.4856097997      -29.9474847686  TIP3      10111           0.0000000000
     55248     10311  TIP3      H1            -30.2569951709      -17.5475401256      -29.0291720907  TIP3      10111           0.0000000000
     55249     10311  TIP3      H2            -30.2444475443      -18.3629613112      -30.2531286388  TIP3      10111           0.0000000000
     55250     10312  TIP3      OH2           -34.1633656358      -14.6478304195      -24.5384847492  TIP3      10112           0.0000000000
     55251     10312  TIP3      H1            -35.1077829764      -14.9086248485      -24.6282263451  TIP3      10112           0.0000000000
     55252     10312  TIP3      H2            -33.8056255279      -14.9574487079      -25.3924825615  TIP3      10112           0.0000000000
     55253     10313  TIP3      OH2           -28.6685522637      -14.1498894326      -25.7335760318  TIP3      10113           0.0000000000
     55254     10313  TIP3      H1            -29.0309076883      -13.3112036298      -26.0845040477  TIP3      10113           0.0000000000
     55255     10313  TIP3      H2            -27.9475082130      -14.3106992296      -26.3572142334  TIP3      10113           0.0000000000
     55256     10314  TIP3      OH2           -33.1220088658      -17.1202480311      -30.8317867591  TIP3      10114           0.0000000000
     55257     10314  TIP3      H1            -33.5796299440      -17.5392530033      -30.0714236018  TIP3      10114           0.0000000000
     55258     10314  TIP3      H2            -33.8365354408      -16.6880666011      -31.3201485282  TIP3      10114           0.0000000000
     55259     10315  TIP3      OH2           -39.8552012787      -17.4525684638      -23.7678688399  TIP3      10115           0.0000000000
     55260     10315  TIP3      H1            -39.1875481938      -17.3995098433      -23.0718475061  TIP3      10115           0.0000000000
     55261     10315  TIP3      H2            -39.3832221751      -17.8680822544      -24.5038414750  TIP3      10115           0.0000000000
     55262     10316  TIP3      OH2           -38.5628618699      -16.6551819037      -28.3441583814  TIP3      10116           0.0000000000
     55263     10316  TIP3      H1            -38.0454702852      -16.0370122705      -28.9039075530  TIP3      10116           0.0000000000
     55264     10316  TIP3      H2            -39.2374009325      -16.0774049302      -27.9781210878  TIP3      10116           0.0000000000
     55265     10317  TIP3      OH2           -31.6025060037      -17.0988667394      -23.4895123671  TIP3      10117           0.0000000000
     55266     10317  TIP3      H1            -32.5348054610      -17.1010882247      -23.1836473853  TIP3      10117           0.0000000000
     55267     10317  TIP3      H2            -31.0851491617      -17.2453618340      -22.6791985657  TIP3      10117           0.0000000000
     55268     10318  TIP3      OH2           -36.7639343838      -15.5458827881      -24.6398418731  TIP3      10118           0.0000000000
     55269     10318  TIP3      H1            -37.6578306576      -15.3641072163      -24.9781680055  TIP3      10118           0.0000000000
     55270     10318  TIP3      H2            -36.5422329793      -16.4136913285      -25.0045387957  TIP3      10118           0.0000000000
     55271     10319  TIP3      OH2           -33.1543528033      -15.5023250967      -27.0114460339  TIP3      10119           0.0000000000
     55272     10319  TIP3      H1            -32.1963101881      -15.3933573293      -26.8496824270  TIP3      10119           0.0000000000
     55273     10319  TIP3      H2            -33.3894796517      -14.8109884057      -27.6564952791  TIP3      10119           0.0000000000
     55274     10320  TIP3      OH2           -34.4491689086      -14.3217773470      -29.4152174663  TIP3      10120           0.0000000000
     55275     10320  TIP3      H1            -34.9770224007      -14.6993794372      -30.1393905130  TIP3      10120           0.0000000000
     55276     10320  TIP3      H2            -33.6257793394      -14.1133518808      -29.8833627809  TIP3      10120           0.0000000000
     55277     10321  TIP3      OH2           -35.3083366523      -18.1919095857      -25.1682614775  TIP3      10121           0.0000000000
     55278     10321  TIP3      H1            -35.6191486629      -19.1152397895      -25.1574770443  TIP3      10121           0.0000000000
     55279     10321  TIP3      H2            -34.5254418231      -18.2596115417      -25.7214438178  TIP3      10121           0.0000000000
     55280     10322  TIP3      OH2           -31.0956252967       -9.7928613364      -27.4923713836  TIP3      10122           0.0000000000
     55281     10322  TIP3      H1            -31.8940376116      -10.2598740084      -27.8280249895  TIP3      10122           0.0000000000
     55282     10322  TIP3      H2            -31.3154248948       -9.6855677386      -26.5418092477  TIP3      10122           0.0000000000
     55283     10323  TIP3      OH2           -27.2710676874      -16.9740165707      -29.3102896062  TIP3      10123           0.0000000000
     55284     10323  TIP3      H1            -28.2207001472      -16.8197072033      -29.4541231192  TIP3      10123           0.0000000000
     55285     10323  TIP3      H2            -26.9315881984      -16.1259864295      -28.9428245579  TIP3      10123           0.0000000000
     55286     10324  TIP3      OH2           -26.5247667948      -15.0607461797      -27.7135515560  TIP3      10124           0.0000000000
     55287     10324  TIP3      H1            -25.6566738500      -15.1819252349      -27.2738986941  TIP3      10124           0.0000000000
     55288     10324  TIP3      H2            -26.4240139858      -14.2300069819      -28.2033056311  TIP3      10124           0.0000000000
     55289     10325  TIP3      OH2           -35.9782657948      -10.3875619981      -21.7242332931  TIP3      10125           0.0000000000
     55290     10325  TIP3      H1            -35.2916827681      -10.5159986077      -22.3826647552  TIP3      10125           0.0000000000
     55291     10325  TIP3      H2            -35.9164436693      -11.2047037144      -21.2136158437  TIP3      10125           0.0000000000
     55292     10326  TIP3      OH2           -29.0008641596       -8.3256124476      -28.4642662790  TIP3      10126           0.0000000000
     55293     10326  TIP3      H1            -29.3341902273       -7.4796715339      -28.1039162087  TIP3      10126           0.0000000000
     55294     10326  TIP3      H2            -29.7318314769       -8.9393781702      -28.2365581625  TIP3      10126           0.0000000000
     55295     10327  TIP3      OH2           -21.6292953154      -14.9248724554      -27.9176671331  TIP3      10127           0.0000000000
     55296     10327  TIP3      H1            -22.1988648248      -15.2003293080      -28.6592737636  TIP3      10127           0.0000000000
     55297     10327  TIP3      H2            -21.5446036572      -13.9742375664      -28.1533556114  TIP3      10127           0.0000000000
     55298     10328  TIP3      OH2           -23.3629427936       -6.0828920243      -27.5195713351  TIP3      10128           0.0000000000
     55299     10328  TIP3      H1            -23.7006262488       -6.9211069483      -27.1807981988  TIP3      10128           0.0000000000
     55300     10328  TIP3      H2            -23.0148133865       -6.3021878894      -28.3974293924  TIP3      10128           0.0000000000
     55301     10329  TIP3      OH2           -33.6147951823       -6.9313827241      -24.2778517789  TIP3      10129           0.0000000000
     55302     10329  TIP3      H1            -33.1024862449       -6.1420763323      -24.5324506177  TIP3      10129           0.0000000000
     55303     10329  TIP3      H2            -34.4742562743       -6.7133766870      -24.6660372575  TIP3      10129           0.0000000000
     55304     10330  TIP3      OH2           -37.9156931704      -12.0873078955      -29.7357667397  TIP3      10130           0.0000000000
     55305     10330  TIP3      H1            -37.2777842861      -11.4505659835      -29.3494482590  TIP3      10130           0.0000000000
     55306     10330  TIP3      H2            -38.7552687199      -11.7223493527      -29.4387708208  TIP3      10130           0.0000000000
     55307     10331  TIP3      OH2           -32.1810504102       -9.2778277745      -24.8137287767  TIP3      10131           0.0000000000
     55308     10331  TIP3      H1            -32.4839132427       -8.3608799344      -24.7134164043  TIP3      10131           0.0000000000
     55309     10331  TIP3      H2            -32.8970765093       -9.7731661420      -24.3635915718  TIP3      10131           0.0000000000
     55310     10332  TIP3      OH2           -33.5211485978       -4.2624679295      -25.2360782529  TIP3      10132           0.0000000000
     55311     10332  TIP3      H1            -34.4844625119       -4.1050074564      -25.1641820218  TIP3      10132           0.0000000000
     55312     10332  TIP3      H2            -33.1576797753       -3.4318644399      -24.8669716250  TIP3      10132           0.0000000000
     55313     10333  TIP3      OH2           -25.8828652421       -8.0145991350      -29.6651956020  TIP3      10133           0.0000000000
     55314     10333  TIP3      H1            -25.5896538095       -8.4882720097      -28.8610997739  TIP3      10133           0.0000000000
     55315     10333  TIP3      H2            -26.8369958406       -8.1998839399      -29.5867801703  TIP3      10133           0.0000000000
     55316     10334  TIP3      OH2           -21.4211704617       -3.6643801869      -29.4126874652  TIP3      10134           0.0000000000
     55317     10334  TIP3      H1            -20.7340756523       -2.9992745575      -29.6197388215  TIP3      10134           0.0000000000
     55318     10334  TIP3      H2            -22.1370664403       -3.0532184030      -29.1290394260  TIP3      10134           0.0000000000
     55319     10335  TIP3      OH2           -25.1115371774       -9.3678382694      -27.3982804935  TIP3      10135           0.0000000000
     55320     10335  TIP3      H1            -25.3439233903      -10.1780452941      -26.8943379435  TIP3      10135           0.0000000000
     55321     10335  TIP3      H2            -24.1498370985       -9.3475506501      -27.2643635593  TIP3      10135           0.0000000000
     55322     10336  TIP3      OH2           -31.7734886066       -6.9389723848      -31.1735770977  TIP3      10136           0.0000000000
     55323     10336  TIP3      H1            -31.6575064573       -7.7062231649      -31.7583676492  TIP3      10136           0.0000000000
     55324     10336  TIP3      H2            -32.2012055827       -7.3766060597      -30.4055058006  TIP3      10136           0.0000000000
     55325     10337  TIP3      OH2           -32.9941917276       -7.4219003595      -28.7262754435  TIP3      10137           0.0000000000
     55326     10337  TIP3      H1            -32.7347948163       -7.9317148476      -27.9528543990  TIP3      10137           0.0000000000
     55327     10337  TIP3      H2            -32.9264233508       -6.4905751075      -28.4107733140  TIP3      10137           0.0000000000
     55328     10338  TIP3      OH2           -36.4919405559      -10.1745518982      -28.2722811172  TIP3      10138           0.0000000000
     55329     10338  TIP3      H1            -37.1726578400       -9.7929988192      -27.6733822105  TIP3      10138           0.0000000000
     55330     10338  TIP3      H2            -35.9485162171       -9.3993686756      -28.5122867183  TIP3      10138           0.0000000000
     55331     10339  TIP3      OH2           -27.8528122755      -17.9399448424      -26.8549786083  TIP3      10139           0.0000000000
     55332     10339  TIP3      H1            -27.6365055173      -17.4496341509      -27.6671440835  TIP3      10139           0.0000000000
     55333     10339  TIP3      H2            -27.3087529055      -17.4754838050      -26.1967636262  TIP3      10139           0.0000000000
     55334     10340  TIP3      OH2           -30.1835807644       -5.7581877652      -28.0277808038  TIP3      10140           0.0000000000
     55335     10340  TIP3      H1            -30.9987747909       -5.2227961015      -27.9527662334  TIP3      10140           0.0000000000
     55336     10340  TIP3      H2            -29.6410456504       -5.2052504151      -28.6099386393  TIP3      10140           0.0000000000
     55337     10341  TIP3      OH2           -30.6399732804      -16.1618140526      -26.0230795389  TIP3      10141           0.0000000000
     55338     10341  TIP3      H1            -29.8550869977      -15.5794763437      -25.9433552880  TIP3      10141           0.0000000000
     55339     10341  TIP3      H2            -30.9026164697      -16.2986400565      -25.0937134144  TIP3      10141           0.0000000000
     55340     10342  TIP3      OH2           -29.7923846088      -19.0762518878      -25.1498658349  TIP3      10142           0.0000000000
     55341     10342  TIP3      H1            -30.0782313364      -18.4495310159      -24.4584986732  TIP3      10142           0.0000000000
     55342     10342  TIP3      H2            -29.0942700529      -18.5446189869      -25.6004174448  TIP3      10142           0.0000000000
     55343     10343  TIP3      OH2           -32.7812049394       -4.7270863367      -28.0059193248  TIP3      10143           0.0000000000
     55344     10343  TIP3      H1            -32.6829669724       -3.9087120441      -28.5509278795  TIP3      10143           0.0000000000
     55345     10343  TIP3      H2            -33.0421658888       -4.3552417928      -27.1373187755  TIP3      10143           0.0000000000
     55346     10344  TIP3      OH2           -34.1228693817      -18.0022230321      -28.4169703034  TIP3      10144           0.0000000000
     55347     10344  TIP3      H1            -34.1788878863      -17.1034044341      -28.0326861501  TIP3      10144           0.0000000000
     55348     10344  TIP3      H2            -33.2146035880      -18.2422179267      -28.1508201109  TIP3      10144           0.0000000000
     55349     10345  TIP3      OH2           -25.2445006802      -13.5556168340      -22.0507114727  TIP3      10145           0.0000000000
     55350     10345  TIP3      H1            -26.1598023539      -13.8298963201      -22.2260281843  TIP3      10145           0.0000000000
     55351     10345  TIP3      H2            -25.0581281239      -14.1799214148      -21.3494468305  TIP3      10145           0.0000000000
     55352     10346  TIP3      OH2           -35.8385002103       -7.5393673510      -29.3653283430  TIP3      10146           0.0000000000
     55353     10346  TIP3      H1            -35.1766327757       -6.9097817995      -29.0658086946  TIP3      10146           0.0000000000
     55354     10346  TIP3      H2            -35.3330941373       -8.0113328009      -30.0571282139  TIP3      10146           0.0000000000
     55355     10347  TIP3      OH2           -37.5587725026      -14.8841251555      -30.2046323207  TIP3      10147           0.0000000000
     55356     10347  TIP3      H1            -37.5422827338      -13.9254408263      -30.0239693041  TIP3      10147           0.0000000000
     55357     10347  TIP3      H2            -38.4415370733      -15.0457244104      -30.5366873950  TIP3      10147           0.0000000000
     55358     10348  TIP3      OH2           -36.6645724448      -20.1489577077      -21.5230801519  TIP3      10148           0.0000000000
     55359     10348  TIP3      H1            -36.9526100955      -20.0250755798      -22.4509685798  TIP3      10148           0.0000000000
     55360     10348  TIP3      H2            -37.2028597335      -20.9229479085      -21.2639099260  TIP3      10148           0.0000000000
     55361     10349  TIP3      OH2           -37.7395435534       -6.1250964340      -25.3029047406  TIP3      10149           0.0000000000
     55362     10349  TIP3      H1            -38.6238269618       -5.7533349828      -25.4012830339  TIP3      10149           0.0000000000
     55363     10349  TIP3      H2            -37.2849447616       -5.7184185215      -26.0566602854  TIP3      10149           0.0000000000
     55364     10350  TIP3      OH2           -29.7624063101       -5.0952360013      -31.0482361160  TIP3      10150           0.0000000000
     55365     10350  TIP3      H1            -30.4551545005       -5.7541765348      -30.8217184855  TIP3      10150           0.0000000000
     55366     10350  TIP3      H2            -29.0438099746       -5.6935109771      -31.2962472464  TIP3      10150           0.0000000000
     55367     10351  TIP3      OH2           -25.2048226983       -5.3509833043      -30.8611374533  TIP3      10151           0.0000000000
     55368     10351  TIP3      H1            -24.9077473971       -6.1268666238      -30.3587895430  TIP3      10151           0.0000000000
     55369     10351  TIP3      H2            -24.4427335325       -5.1257318102      -31.4161878065  TIP3      10151           0.0000000000
     55370     10352  TIP3      OH2           -34.3309813670       -9.4132061548      -31.0388157147  TIP3      10152           0.0000000000
     55371     10352  TIP3      H1            -34.1805716729      -10.1693260680      -30.4491494765  TIP3      10152           0.0000000000
     55372     10352  TIP3      H2            -33.5760603616       -9.5289801823      -31.6468734753  TIP3      10152           0.0000000000
     55373     10353  TIP3      OH2           -28.8871740135       -8.2998050944      -31.2670212698  TIP3      10153           0.0000000000
     55374     10353  TIP3      H1            -29.1573140822       -8.2202183804      -30.3383312112  TIP3      10153           0.0000000000
     55375     10353  TIP3      H2            -29.0751202581       -9.2577195695      -31.4116962197  TIP3      10153           0.0000000000
     55376     10354  TIP3      OH2           -33.1282055928      -11.3844567037      -28.6392572995  TIP3      10154           0.0000000000
     55377     10354  TIP3      H1            -33.6088367316      -11.9280784965      -27.9938284868  TIP3      10154           0.0000000000
     55378     10354  TIP3      H2            -32.8136423766      -12.0657448756      -29.2763002741  TIP3      10154           0.0000000000
     55379     10355  TIP3      OH2           -32.0505831843      -13.1641717255      -30.4147481360  TIP3      10155           0.0000000000
     55380     10355  TIP3      H1            -32.1951512972      -13.2574486930      -31.3768548235  TIP3      10155           0.0000000000
     55381     10355  TIP3      H2            -31.0720088891      -13.1175632197      -30.3486927480  TIP3      10155           0.0000000000
     55382     10356  TIP3      OH2           -22.7092762601      -10.8522417861      -31.0078261997  TIP3      10156           0.0000000000
     55383     10356  TIP3      H1            -22.9005520482      -11.2305807312      -31.8793325299  TIP3      10156           0.0000000000
     55384     10356  TIP3      H2            -22.6215223460       -9.8879927813      -31.1929183255  TIP3      10156           0.0000000000
     55385     10357  TIP3      OH2           -32.2047798234       -2.4576044180      -29.3369808223  TIP3      10157           0.0000000000
     55386     10357  TIP3      H1            -31.2390612534       -2.3667209165      -29.2783212778  TIP3      10157           0.0000000000
     55387     10357  TIP3      H2            -32.3516071765       -1.8651006615      -30.0809839780  TIP3      10157           0.0000000000
     55388     10358  TIP3      OH2           -38.2556397986       -7.7769960697      -30.1685615166  TIP3      10158           0.0000000000
     55389     10358  TIP3      H1            -37.3756087392       -7.8533448506      -29.7326319434  TIP3      10158           0.0000000000
     55390     10358  TIP3      H2            -38.3567387996       -8.6205738216      -30.6488610963  TIP3      10158           0.0000000000
     55391     10359  TIP3      OH2            40.2933039325       -2.2930555649      -25.0284645855  TIP3      10159           0.0000000000
     55392     10359  TIP3      H1             39.5238271834       -2.6880842253      -25.5005583396  TIP3      10159           0.0000000000
     55393     10359  TIP3      H2             40.4029327541       -3.0645908534      -24.4547317308  TIP3      10159           0.0000000000
     55394     10360  TIP3      OH2           -22.1956736646       -9.9044775003      -27.0141292496  TIP3      10160           0.0000000000
     55395     10360  TIP3      H1            -21.3044017073       -9.5425865641      -26.8748703959  TIP3      10160           0.0000000000
     55396     10360  TIP3      H2            -22.1783498189      -10.6560665971      -26.3824542725  TIP3      10160           0.0000000000
     55397     10361  TIP3      OH2           -21.8377407881      -11.8238268982      -25.1544982254  TIP3      10161           0.0000000000
     55398     10361  TIP3      H1            -22.5523914490      -12.3894800281      -24.8025430606  TIP3      10161           0.0000000000
     55399     10361  TIP3      H2            -21.1940298633      -11.7330539731      -24.4161801133  TIP3      10161           0.0000000000
     55400     10362  TIP3      OH2           -21.5164108053      -12.0295421127      -28.7684452006  TIP3      10162           0.0000000000
     55401     10362  TIP3      H1            -22.0830072049      -11.6914249336      -29.4942434081  TIP3      10162           0.0000000000
     55402     10362  TIP3      H2            -21.6160958025      -11.3184143382      -28.1108764780  TIP3      10162           0.0000000000
     55403     10363  TIP3      OH2           -23.1454842392      -14.7972770306      -30.2462087659  TIP3      10163           0.0000000000
     55404     10363  TIP3      H1            -23.0645423198      -14.1379918637      -30.9468684105  TIP3      10163           0.0000000000
     55405     10363  TIP3      H2            -23.3280990397      -15.6205395713      -30.7442328319  TIP3      10163           0.0000000000
     55406     10364  TIP3      OH2           -23.9619878118      -13.3970515691      -24.5246483221  TIP3      10164           0.0000000000
     55407     10364  TIP3      H1            -24.1572724885      -14.3355530796      -24.6960110823  TIP3      10164           0.0000000000
     55408     10364  TIP3      H2            -24.4542037719      -13.2115852263      -23.7133092842  TIP3      10164           0.0000000000
     55409     10365  TIP3      OH2           -38.9572017686      -11.5488799136      -20.6020369299  TIP3      10165           0.0000000000
     55410     10365  TIP3      H1            -38.7918336310      -11.3282200218      -21.5319452833  TIP3      10165           0.0000000000
     55411     10365  TIP3      H2            -38.1271405558      -11.3739350085      -20.1712867643  TIP3      10165           0.0000000000
     55412     10366  TIP3      OH2           -23.8912544941      -17.3266952327      -31.1227667550  TIP3      10166           0.0000000000
     55413     10366  TIP3      H1            -23.3047002520      -17.7688499477      -30.4800208354  TIP3      10166           0.0000000000
     55414     10366  TIP3      H2            -24.7571864659      -17.7444733634      -30.9717780893  TIP3      10166           0.0000000000
     55415     10367  TIP3      OH2           -24.3368482858      -15.7834863478      -26.1505481364  TIP3      10167           0.0000000000
     55416     10367  TIP3      H1            -24.0403977149      -16.7202220332      -26.0464678307  TIP3      10167           0.0000000000
     55417     10367  TIP3      H2            -23.5251955116      -15.3927061101      -26.5044750164  TIP3      10167           0.0000000000
     55418     10368  TIP3      OH2           -23.6476268334      -18.5175971029      -26.0891507540  TIP3      10168           0.0000000000
     55419     10368  TIP3      H1            -23.4433546438      -18.9646787584      -25.2430983456  TIP3      10168           0.0000000000
     55420     10368  TIP3      H2            -24.2641232461      -19.1432301813      -26.5249391415  TIP3      10168           0.0000000000
     55421     10369  TIP3      OH2           -21.8424397683      -18.4766318584      -29.5379567361  TIP3      10169           0.0000000000
     55422     10369  TIP3      H1            -21.4296232496      -19.1907475674      -30.0709946865  TIP3      10169           0.0000000000
     55423     10369  TIP3      H2            -21.1347543437      -17.8153079393      -29.4900206421  TIP3      10169           0.0000000000
     55424     10370  TIP3      OH2           -39.5038699581      -18.4424144783      -26.5081784258  TIP3      10170           0.0000000000
     55425     10370  TIP3      H1            -40.4411547357      -18.2544353327      -26.5979620308  TIP3      10170           0.0000000000
     55426     10370  TIP3      H2            -39.0568959794      -17.9236431869      -27.2028831488  TIP3      10170           0.0000000000
     55427     10371  TIP3      OH2           -24.7829041721       -3.4951193091      -24.4633684332  TIP3      10171           0.0000000000
     55428     10371  TIP3      H1            -24.1176507340       -3.7770966960      -25.1251600475  TIP3      10171           0.0000000000
     55429     10371  TIP3      H2            -24.2484257852       -3.0009253559      -23.8379033943  TIP3      10171           0.0000000000
     55430     10372  TIP3      OH2           -29.5261642883      -18.9049029326      -22.1833642328  TIP3      10172           0.0000000000
     55431     10372  TIP3      H1            -30.0189656840      -19.5947330795      -21.7452658403  TIP3      10172           0.0000000000
     55432     10372  TIP3      H2            -28.8231090147      -19.3987114507      -22.6222188970  TIP3      10172           0.0000000000
     55433     10373  TIP3      OH2           -24.2762116338      -20.7780158398      -22.1090313854  TIP3      10173           0.0000000000
     55434     10373  TIP3      H1            -23.6543535316      -20.1783259254      -22.5752856014  TIP3      10173           0.0000000000
     55435     10373  TIP3      H2            -25.1808397898      -20.4486871476      -22.2656130934  TIP3      10173           0.0000000000
     55436     10374  TIP3      OH2           -22.6028084021      -19.5297946007      -23.7199714296  TIP3      10174           0.0000000000
     55437     10374  TIP3      H1            -21.9402421234      -20.1326346070      -24.1367581071  TIP3      10174           0.0000000000
     55438     10374  TIP3      H2            -22.0774272546      -18.7048885145      -23.6836566394  TIP3      10174           0.0000000000
     55439     10375  TIP3      OH2           -37.0378343891      -20.2156912585      -24.2574148602  TIP3      10175           0.0000000000
     55440     10375  TIP3      H1            -37.8443093473      -20.4182686519      -24.7678888486  TIP3      10175           0.0000000000
     55441     10375  TIP3      H2            -36.5748389462      -21.0727448838      -24.2907951502  TIP3      10175           0.0000000000
     55442     10376  TIP3      OH2           -38.3406658521      -20.4931245688      -28.5535267411  TIP3      10176           0.0000000000
     55443     10376  TIP3      H1            -37.7796536344      -19.8610217508      -29.0448376361  TIP3      10176           0.0000000000
     55444     10376  TIP3      H2            -38.8303324216      -19.8956076044      -27.9608370130  TIP3      10176           0.0000000000
     55445     10377  TIP3      OH2           -32.5630077362      -20.3186854866      -24.4427638977  TIP3      10177           0.0000000000
     55446     10377  TIP3      H1            -31.6705738157      -19.9353697716      -24.4825734951  TIP3      10177           0.0000000000
     55447     10377  TIP3      H2            -32.6582901681      -20.5006144038      -23.5053168625  TIP3      10177           0.0000000000
     55448     10378  TIP3      OH2           -26.9186405729      -20.3009783527      -22.7922529069  TIP3      10178           0.0000000000
     55449     10378  TIP3      H1            -26.9223008600      -20.2031933731      -23.7539275826  TIP3      10178           0.0000000000
     55450     10378  TIP3      H2            -27.2396930841      -21.2079826065      -22.6521822981  TIP3      10178           0.0000000000
     55451     10379  TIP3      OH2           -25.6012058500      -20.2513402459      -27.1232667320  TIP3      10179           0.0000000000
     55452     10379  TIP3      H1            -26.3507500198      -19.6558714882      -27.2819830516  TIP3      10179           0.0000000000
     55453     10379  TIP3      H2            -26.0377899144      -21.1094335272      -26.9088835677  TIP3      10179           0.0000000000
     55454     10380  TIP3      OH2           -38.4070407597       -4.5286802523      -27.4808656769  TIP3      10180           0.0000000000
     55455     10380  TIP3      H1            -39.0311662571       -4.5269268420      -28.2132867298  TIP3      10180           0.0000000000
     55456     10380  TIP3      H2            -38.3315390991       -3.5732104104      -27.3390935154  TIP3      10180           0.0000000000
     55457     10381  TIP3      OH2           -36.4591262624      -18.5500239373      -29.9936095147  TIP3      10181           0.0000000000
     55458     10381  TIP3      H1            -35.9020157562      -19.1480357622      -30.5221498041  TIP3      10181           0.0000000000
     55459     10381  TIP3      H2            -35.7869339088      -18.2214009074      -29.3685844315  TIP3      10181           0.0000000000
     55460     10382  TIP3      OH2           -31.4274514208      -18.2738873675      -27.5945419066  TIP3      10182           0.0000000000
     55461     10382  TIP3      H1            -31.1708731794      -18.8626202182      -26.8668237592  TIP3      10182           0.0000000000
     55462     10382  TIP3      H2            -31.3362723072      -17.4140680387      -27.1209902460  TIP3      10182           0.0000000000
     55463     10383  TIP3      OH2           -29.4926911597       -3.2159446088      -29.1443431210  TIP3      10183           0.0000000000
     55464     10383  TIP3      H1            -28.5748360128       -2.9902272920      -29.3692698559  TIP3      10183           0.0000000000
     55465     10383  TIP3      H2            -29.7145604829       -3.7355878249      -29.9457482078  TIP3      10183           0.0000000000
     55466     10384  TIP3      OH2           -22.7892923302       -3.7116626791      -26.4352938098  TIP3      10184           0.0000000000
     55467     10384  TIP3      H1            -22.9895667574       -4.4950122270      -27.0016541462  TIP3      10184           0.0000000000
     55468     10384  TIP3      H2            -22.8665059200       -2.9764103161      -27.0753209017  TIP3      10184           0.0000000000
     55469     10385  TIP3      OH2           -36.6043304936       -3.5774393775      -30.5479442375  TIP3      10185           0.0000000000
     55470     10385  TIP3      H1            -36.8161626777       -3.2786251475      -29.6531792939  TIP3      10185           0.0000000000
     55471     10385  TIP3      H2            -35.7841797502       -4.0907952544      -30.3922134467  TIP3      10185           0.0000000000
     55472     10386  TIP3      OH2            -9.1139643188      -11.0740332167      -24.3613422867  TIP3      10186           0.0000000000
     55473     10386  TIP3      H1             -9.1232510912      -10.0942302873      -24.4047178933  TIP3      10186           0.0000000000
     55474     10386  TIP3      H2             -9.8245465220      -11.3140646876      -24.9805450283  TIP3      10186           0.0000000000
     55475     10387  TIP3      OH2            -6.5998917615       -8.8713572958      -22.6071887006  TIP3      10187           0.0000000000
     55476     10387  TIP3      H1             -6.9458436851       -9.6308114588      -22.1234959468  TIP3      10187           0.0000000000
     55477     10387  TIP3      H2             -6.4647009095       -8.2144810760      -21.9016137906  TIP3      10187           0.0000000000
     55478     10388  TIP3      OH2           -20.3427370576      -14.1637545854      -25.3111444916  TIP3      10188           0.0000000000
     55479     10388  TIP3      H1            -20.7186593188      -13.2694997452      -25.4210631785  TIP3      10188           0.0000000000
     55480     10388  TIP3      H2            -20.9035788808      -14.6869448198      -25.8920259529  TIP3      10188           0.0000000000
     55481     10389  TIP3      OH2           -19.6739049813      -11.9697416087      -23.2469957475  TIP3      10189           0.0000000000
     55482     10389  TIP3      H1            -19.3513389897      -12.6883435511      -22.6909128683  TIP3      10189           0.0000000000
     55483     10389  TIP3      H2            -18.9174663971      -11.8125992294      -23.8366169284  TIP3      10189           0.0000000000
     55484     10390  TIP3      OH2            -8.5299627231      -14.9714023801      -20.1465904203  TIP3      10190           0.0000000000
     55485     10390  TIP3      H1             -8.6238669345      -15.9213189748      -20.0108814962  TIP3      10190           0.0000000000
     55486     10390  TIP3      H2             -8.9303987897      -14.8282705219      -21.0183868028  TIP3      10190           0.0000000000
     55487     10391  TIP3      OH2           -15.4921800201      -16.8976707118      -22.9005687649  TIP3      10191           0.0000000000
     55488     10391  TIP3      H1            -15.5359115078      -16.0111679972      -23.2857540514  TIP3      10191           0.0000000000
     55489     10391  TIP3      H2            -16.0292164504      -17.4287109489      -23.5273586683  TIP3      10191           0.0000000000
     55490     10392  TIP3      OH2            -7.8433788702      -16.7981258008      -24.5278309281  TIP3      10192           0.0000000000
     55491     10392  TIP3      H1             -7.2095955357      -17.1289532968      -23.8994050847  TIP3      10192           0.0000000000
     55492     10392  TIP3      H2             -7.3037624725      -16.2070927528      -25.0827255556  TIP3      10192           0.0000000000
     55493     10393  TIP3      OH2           -13.7878954484      -12.9301067680      -22.8867331879  TIP3      10193           0.0000000000
     55494     10393  TIP3      H1            -13.1807744412      -13.4557237396      -22.3573628881  TIP3      10193           0.0000000000
     55495     10393  TIP3      H2            -14.3366477610      -13.6056764459      -23.3218104553  TIP3      10193           0.0000000000
     55496     10394  TIP3      OH2            -9.3965046689       -8.4875518686      -25.2618898104  TIP3      10194           0.0000000000
     55497     10394  TIP3      H1             -9.6480651705       -8.7851991227      -26.1405403475  TIP3      10194           0.0000000000
     55498     10394  TIP3      H2             -9.7035272523       -7.5574971383      -25.2537326200  TIP3      10194           0.0000000000
     55499     10395  TIP3      OH2           -19.6405772883       -8.7181806106      -26.9766902495  TIP3      10195           0.0000000000
     55500     10395  TIP3      H1            -19.8943806752       -8.3750872858      -27.8529673051  TIP3      10195           0.0000000000
     55501     10395  TIP3      H2            -19.5567894727       -7.8972910300      -26.4506853923  TIP3      10195           0.0000000000
     55502     10396  TIP3      OH2            -6.1832459362       -7.0070940308      -20.5071201858  TIP3      10196           0.0000000000
     55503     10396  TIP3      H1             -6.9120260091       -6.9950339209      -19.8936474392  TIP3      10196           0.0000000000
     55504     10396  TIP3      H2             -5.6224683379       -6.2470328785      -20.2511620268  TIP3      10196           0.0000000000
     55505     10397  TIP3      OH2            -6.5741514956       -7.3223063841      -25.0846897353  TIP3      10197           0.0000000000
     55506     10397  TIP3      H1             -6.8698322343       -8.0064937902      -25.7050347236  TIP3      10197           0.0000000000
     55507     10397  TIP3      H2             -6.5127384983       -7.8362347000      -24.2658333256  TIP3      10197           0.0000000000
     55508     10398  TIP3      OH2           -10.4426400886      -11.8624382057      -26.8269150840  TIP3      10198           0.0000000000
     55509     10398  TIP3      H1            -11.1412724438      -11.2883078243      -27.1957671162  TIP3      10198           0.0000000000
     55510     10398  TIP3      H2             -9.7431883049      -11.7578863233      -27.5004193091  TIP3      10198           0.0000000000
     55511     10399  TIP3      OH2           -10.3689230283      -13.2822773478      -29.8501802127  TIP3      10199           0.0000000000
     55512     10399  TIP3      H1             -9.6638233828      -13.3003221514      -29.1855083440  TIP3      10199           0.0000000000
     55513     10399  TIP3      H2            -10.0633207451      -14.0016674044      -30.4175934135  TIP3      10199           0.0000000000
     55514     10400  TIP3      OH2            -7.0081441036      -11.6474899998      -25.9550528052  TIP3      10200           0.0000000000
     55515     10400  TIP3      H1             -7.7460234834      -11.3993353481      -25.3361823967  TIP3      10200           0.0000000000
     55516     10400  TIP3      H2             -6.5239066565      -12.3095778514      -25.4440621016  TIP3      10200           0.0000000000
     55517     10401  TIP3      OH2           -15.4037190701      -10.9992674356      -24.0146924421  TIP3      10201           0.0000000000
     55518     10401  TIP3      H1            -15.7248291701      -11.3988777956      -24.8493536684  TIP3      10201           0.0000000000
     55519     10401  TIP3      H2            -14.7801130332      -11.6812768533      -23.6743267831  TIP3      10201           0.0000000000
     55520     10402  TIP3      OH2            -8.1256728248      -12.4395048878      -28.2760936726  TIP3      10202           0.0000000000
     55521     10402  TIP3      H1             -7.5690184651      -12.2669523711      -27.4768469318  TIP3      10202           0.0000000000
     55522     10402  TIP3      H2             -7.6728300901      -11.9443757922      -28.9955845513  TIP3      10202           0.0000000000
     55523     10403  TIP3      OH2           -10.3925398944       -5.7157315685      -24.7844119908  TIP3      10203           0.0000000000
     55524     10403  TIP3      H1             -9.9976338472       -5.3958192649      -23.9888402412  TIP3      10203           0.0000000000
     55525     10403  TIP3      H2            -10.9926617660       -5.0059284350      -25.0608278724  TIP3      10203           0.0000000000
     55526     10404  TIP3      OH2            -4.3974359727      -20.7092758948      -28.3587972166  TIP3      10204           0.0000000000
     55527     10404  TIP3      H1             -5.3461084916      -20.5960320130      -28.1271211756  TIP3      10204           0.0000000000
     55528     10404  TIP3      H2             -4.1984743530      -19.8720097337      -28.8127780803  TIP3      10204           0.0000000000
     55529     10405  TIP3      OH2           -16.4273710014      -11.9677407230      -26.4070090581  TIP3      10205           0.0000000000
     55530     10405  TIP3      H1            -16.7210814288      -11.1806149987      -26.9091801083  TIP3      10205           0.0000000000
     55531     10405  TIP3      H2            -17.0829386723      -12.6331543409      -26.6317231811  TIP3      10205           0.0000000000
     55532     10406  TIP3      OH2            -3.2900491117       -6.3576322168      -30.0118272970  TIP3      10206           0.0000000000
     55533     10406  TIP3      H1             -3.1219830372       -5.4142556009      -29.8476372543  TIP3      10206           0.0000000000
     55534     10406  TIP3      H2             -2.3667995232       -6.6704325113      -30.0199954651  TIP3      10206           0.0000000000
     55535     10407  TIP3      OH2           -20.5705165078       -6.7222907279      -20.7902520733  TIP3      10207           0.0000000000
     55536     10407  TIP3      H1            -19.6422955183       -6.9783021144      -20.7155553505  TIP3      10207           0.0000000000
     55537     10407  TIP3      H2            -20.6242865413       -6.0186902203      -20.1419743988  TIP3      10207           0.0000000000
     55538     10408  TIP3      OH2           -10.9241140931       -2.8060368161      -26.3813476842  TIP3      10208           0.0000000000
     55539     10408  TIP3      H1            -11.0419948155       -2.8838134053      -27.3441170858  TIP3      10208           0.0000000000
     55540     10408  TIP3      H2            -10.9307554707       -1.8420530605      -26.2381244986  TIP3      10208           0.0000000000
     55541     10409  TIP3      OH2           -17.2707568019       -3.9525163103      -24.5671474344  TIP3      10209           0.0000000000
     55542     10409  TIP3      H1            -17.1752151214       -4.3757624136      -23.6996998559  TIP3      10209           0.0000000000
     55543     10409  TIP3      H2            -18.1313874264       -4.3301730657      -24.8177667524  TIP3      10209           0.0000000000
     55544     10410  TIP3      OH2            -7.8773560441       -3.5938797262      -29.4172719335  TIP3      10210           0.0000000000
     55545     10410  TIP3      H1             -7.4163857658       -4.3558080262      -29.8321131403  TIP3      10210           0.0000000000
     55546     10410  TIP3      H2             -7.8413944144       -3.8467303550      -28.4676226703  TIP3      10210           0.0000000000
     55547     10411  TIP3      OH2            -8.1812218498       -3.6492318620      -26.6280280250  TIP3      10211           0.0000000000
     55548     10411  TIP3      H1             -9.1451588095       -3.5942044651      -26.4689199966  TIP3      10211           0.0000000000
     55549     10411  TIP3      H2             -7.9246330001       -4.3918338923      -26.0566876071  TIP3      10211           0.0000000000
     55550     10412  TIP3      OH2            -6.6715320647      -11.4146436623      -30.4530136469  TIP3      10212           0.0000000000
     55551     10412  TIP3      H1             -6.6974402842      -11.6005162143      -31.4200036191  TIP3      10212           0.0000000000
     55552     10412  TIP3      H2             -5.8167765441      -10.9620853218      -30.4052766793  TIP3      10212           0.0000000000
     55553     10413  TIP3      OH2           -11.0804644116      -17.4850736765      -29.9460684526  TIP3      10213           0.0000000000
     55554     10413  TIP3      H1            -11.3964925466      -17.5487483161      -29.0267080378  TIP3      10213           0.0000000000
     55555     10413  TIP3      H2            -11.3897437772      -18.3613249576      -30.2542677439  TIP3      10213           0.0000000000
     55556     10414  TIP3      OH2           -15.3189101746      -14.6321158385      -24.5299900406  TIP3      10214           0.0000000000
     55557     10414  TIP3      H1            -16.2585721594      -14.9096148722      -24.6330667214  TIP3      10214           0.0000000000
     55558     10414  TIP3      H2            -14.9367484913      -14.9524764005      -25.3701419924  TIP3      10214           0.0000000000
     55559     10415  TIP3      OH2            -9.7807961187      -14.1504003793      -25.7073443308  TIP3      10215           0.0000000000
     55560     10415  TIP3      H1            -10.1816197339      -13.3328652955      -26.0802473971  TIP3      10215           0.0000000000
     55561     10415  TIP3      H2             -9.1075790115      -14.3110505168      -26.3907259399  TIP3      10215           0.0000000000
     55562     10416  TIP3      OH2            -8.6805674184      -14.6517995925      -22.9070999453  TIP3      10216           0.0000000000
     55563     10416  TIP3      H1             -9.0589087123      -14.0840439206      -23.6016072295  TIP3      10216           0.0000000000
     55564     10416  TIP3      H2             -8.7059028026      -15.5048528950      -23.3712217988  TIP3      10216           0.0000000000
     55565     10417  TIP3      OH2           -14.2708444176      -17.1203946621      -30.8285968205  TIP3      10217           0.0000000000
     55566     10417  TIP3      H1            -14.7255107831      -17.5409190021      -30.0705218500  TIP3      10217           0.0000000000
     55567     10417  TIP3      H2            -14.9802488034      -16.6879206494      -31.3196384826  TIP3      10217           0.0000000000
     55568     10418  TIP3      OH2           -20.9999852468      -17.3897751182      -23.7544747884  TIP3      10218           0.0000000000
     55569     10418  TIP3      H1            -20.3142084628      -17.4107792994      -23.0480248862  TIP3      10218           0.0000000000
     55570     10418  TIP3      H2            -20.5280452515      -17.8080333295      -24.5002131766  TIP3      10218           0.0000000000
     55571     10419  TIP3      OH2           -19.7254325209      -16.7004318355      -28.3668954599  TIP3      10219           0.0000000000
     55572     10419  TIP3      H1            -19.2064558217      -16.0775463803      -28.9081932368  TIP3      10219           0.0000000000
     55573     10419  TIP3      H2            -20.3935232627      -16.0780320021      -28.0089182006  TIP3      10219           0.0000000000
     55574     10420  TIP3      OH2           -12.7334644080      -17.1308170596      -23.5119799413  TIP3      10220           0.0000000000
     55575     10420  TIP3      H1            -13.6627683997      -17.0907040878      -23.2027874182  TIP3      10220           0.0000000000
     55576     10420  TIP3      H2            -12.2770473689      -17.1865293133      -22.6566118325  TIP3      10220           0.0000000000
     55577     10421  TIP3      OH2           -17.8894813260      -15.5471704927      -24.7066491945  TIP3      10221           0.0000000000
     55578     10421  TIP3      H1            -18.8223667900      -15.3931312466      -24.9569726256  TIP3      10221           0.0000000000
     55579     10421  TIP3      H2            -17.6618725675      -16.4313533326      -25.0358043150  TIP3      10221           0.0000000000
     55580     10422  TIP3      OH2           -14.3022429787      -15.5037909946      -27.0117126466  TIP3      10222           0.0000000000
     55581     10422  TIP3      H1            -13.3467979650      -15.3917065123      -26.8492063309  TIP3      10222           0.0000000000
     55582     10422  TIP3      H2            -14.5384338041      -14.8118382884      -27.6564951812  TIP3      10222           0.0000000000
     55583     10423  TIP3      OH2           -15.5890405234      -14.3206685951      -29.4098332660  TIP3      10223           0.0000000000
     55584     10423  TIP3      H1            -16.1210220745      -14.7076334115      -30.1258639160  TIP3      10223           0.0000000000
     55585     10423  TIP3      H2            -14.7689558366      -14.1134677952      -29.8842314487  TIP3      10223           0.0000000000
     55586     10424  TIP3      OH2           -16.4465433154      -18.1971555450      -25.1495058281  TIP3      10224           0.0000000000
     55587     10424  TIP3      H1            -16.7726363289      -19.1166584513      -25.1574349841  TIP3      10224           0.0000000000
     55588     10424  TIP3      H2            -15.6715316171      -18.2519214026      -25.7188286802  TIP3      10224           0.0000000000
     55589     10425  TIP3      OH2           -12.2348895575       -9.7954539937      -27.4925701029  TIP3      10225           0.0000000000
     55590     10425  TIP3      H1            -13.0381567038      -10.2575015616      -27.8261166294  TIP3      10225           0.0000000000
     55591     10425  TIP3      H2            -12.4579616248       -9.6801637812      -26.5423636098  TIP3      10225           0.0000000000
     55592     10426  TIP3      OH2            -8.4149558111      -16.9742240059      -29.3113425339  TIP3      10226           0.0000000000
     55593     10426  TIP3      H1             -9.3642010319      -16.8190132803      -29.4596711517  TIP3      10226           0.0000000000
     55594     10426  TIP3      H2             -8.0711422305      -16.1239924514      -28.9641556701  TIP3      10226           0.0000000000
     55595     10427  TIP3      OH2            -7.6675495734      -15.0568432407      -27.6651451846  TIP3      10227           0.0000000000
     55596     10427  TIP3      H1             -6.7757208319      -15.1813882852      -27.2844199588  TIP3      10227           0.0000000000
     55597     10427  TIP3      H2             -7.5742196075      -14.2443957999      -28.1931367190  TIP3      10227           0.0000000000
     55598     10428  TIP3      OH2           -17.2080736912      -10.4837878775      -21.7516033631  TIP3      10228           0.0000000000
     55599     10428  TIP3      H1            -16.4270582945      -10.4560857434      -22.3163377395  TIP3      10228           0.0000000000
     55600     10428  TIP3      H2            -17.0725500235      -11.2623301537      -21.2158009655  TIP3      10228           0.0000000000
     55601     10429  TIP3      OH2           -10.1534205251       -8.3225332355      -28.4731087355  TIP3      10229           0.0000000000
     55602     10429  TIP3      H1            -10.4880045410       -7.4786483441      -28.1036617476  TIP3      10229           0.0000000000
     55603     10429  TIP3      H2            -10.8778685725       -8.9403247770      -28.2358548137  TIP3      10229           0.0000000000
     55604     10430  TIP3      OH2            -2.7701521314      -14.9276349449      -27.9198877943  TIP3      10230           0.0000000000
     55605     10430  TIP3      H1             -3.3426577881      -15.2000165726      -28.6599963662  TIP3      10230           0.0000000000
     55606     10430  TIP3      H2             -2.6881114831      -13.9729742517      -28.1547638647  TIP3      10230           0.0000000000
     55607     10431  TIP3      OH2            -4.5186606080       -6.0852006826      -27.5120099965  TIP3      10231           0.0000000000
     55608     10431  TIP3      H1             -4.8516656501       -6.9197187531      -27.1605558558  TIP3      10231           0.0000000000
     55609     10431  TIP3      H2             -4.1720710134       -6.3067055832      -28.3886691392  TIP3      10231           0.0000000000
     55610     10432  TIP3      OH2            -7.2887646053      -11.2505047557      -20.4660519235  TIP3      10232           0.0000000000
     55611     10432  TIP3      H1             -8.2126586442      -11.5239789646      -20.4486914467  TIP3      10232           0.0000000000
     55612     10432  TIP3      H2             -6.8843593296      -12.0511986476      -20.8280185328  TIP3      10232           0.0000000000
     55613     10433  TIP3      OH2           -14.7399296043       -6.9489794182      -24.3200915452  TIP3      10233           0.0000000000
     55614     10433  TIP3      H1            -14.2677545066       -6.1255812952      -24.5092600322  TIP3      10233           0.0000000000
     55615     10433  TIP3      H2            -15.6272982088       -6.7355020493      -24.6306861193  TIP3      10233           0.0000000000
     55616     10434  TIP3      OH2           -18.9889591841      -12.1017779463      -29.7321905335  TIP3      10234           0.0000000000
     55617     10434  TIP3      H1            -18.4098864609      -11.4354642043      -29.3235737279  TIP3      10234           0.0000000000
     55618     10434  TIP3      H2            -19.8791844166      -11.7874708931      -29.4858642293  TIP3      10234           0.0000000000
     55619     10435  TIP3      OH2           -13.3329992176       -9.2888263025      -24.8162931742  TIP3      10235           0.0000000000
     55620     10435  TIP3      H1            -13.6316283234       -8.3681423204      -24.6745730188  TIP3      10235           0.0000000000
     55621     10435  TIP3      H2            -14.0508855968       -9.7500756999      -24.3375113605  TIP3      10235           0.0000000000
     55622     10436  TIP3      OH2           -14.6442500252       -4.2533256798      -25.2824794833  TIP3      10236           0.0000000000
     55623     10436  TIP3      H1            -15.6130930216       -4.1448479460      -25.1744116362  TIP3      10236           0.0000000000
     55624     10436  TIP3      H2            -14.3131969739       -3.4197108162      -24.9043890422  TIP3      10236           0.0000000000
     55625     10437  TIP3      OH2            -7.0265374062       -8.0214432147      -29.6768632680  TIP3      10237           0.0000000000
     55626     10437  TIP3      H1             -6.7333236125       -8.4787693143      -28.8618153325  TIP3      10237           0.0000000000
     55627     10437  TIP3      H2             -7.9810206589       -8.1950465154      -29.5814859487  TIP3      10237           0.0000000000
     55628     10438  TIP3      OH2            -2.5715213197       -3.6638075625      -29.3937642535  TIP3      10238           0.0000000000
     55629     10438  TIP3      H1             -1.8802714187       -3.0054152100      -29.6183591454  TIP3      10238           0.0000000000
     55630     10438  TIP3      H2             -3.2864640891       -3.0470341339      -29.1250222225  TIP3      10238           0.0000000000
     55631     10439  TIP3      OH2            -6.2520257702       -9.3676399872      -27.4181054120  TIP3      10239           0.0000000000
     55632     10439  TIP3      H1             -6.4913912847      -10.1571344466      -26.8870683448  TIP3      10239           0.0000000000
     55633     10439  TIP3      H2             -5.2960111405       -9.3431371100      -27.2533316444  TIP3      10239           0.0000000000
     55634     10440  TIP3      OH2           -12.9001054897       -6.9452855320      -31.1696545532  TIP3      10240           0.0000000000
     55635     10440  TIP3      H1            -12.7917560421       -7.7140545217      -31.7509543182  TIP3      10240           0.0000000000
     55636     10440  TIP3      H2            -13.3439328933       -7.3745466513      -30.4062305938  TIP3      10240           0.0000000000
     55637     10441  TIP3      OH2           -14.1304563147       -7.4195317587      -28.7155173055  TIP3      10241           0.0000000000
     55638     10441  TIP3      H1            -13.8590724399       -7.9296435115      -27.9414930160  TIP3      10241           0.0000000000
     55639     10441  TIP3      H2            -14.0389389424       -6.4915109062      -28.3979909748  TIP3      10241           0.0000000000
     55640     10442  TIP3      OH2           -17.5890010780      -10.1715062267      -28.2427933930  TIP3      10242           0.0000000000
     55641     10442  TIP3      H1            -18.2992701999       -9.7758194471      -27.6982764008  TIP3      10242           0.0000000000
     55642     10442  TIP3      H2            -17.0798333236       -9.3918874757      -28.5297737880  TIP3      10242           0.0000000000
     55643     10443  TIP3      OH2            -8.9906380191      -17.9264200930      -26.8339147330  TIP3      10243           0.0000000000
     55644     10443  TIP3      H1             -8.7910379436      -17.4562277273      -27.6669780196  TIP3      10243           0.0000000000
     55645     10443  TIP3      H2             -8.4443310266      -17.4399067994      -26.2076178600  TIP3      10243           0.0000000000
     55646     10444  TIP3      OH2           -11.3234826045       -5.7543090879      -28.0208838644  TIP3      10244           0.0000000000
     55647     10444  TIP3      H1            -12.1422155475       -5.2228666511      -27.9534737956  TIP3      10244           0.0000000000
     55648     10444  TIP3      H2            -10.7844070000       -5.2058340889      -28.6099265883  TIP3      10244           0.0000000000
     55649     10445  TIP3      OH2           -11.7777923814      -16.1631527895      -26.0157111314  TIP3      10245           0.0000000000
     55650     10445  TIP3      H1            -10.9973695397      -15.5783704233      -25.9495209087  TIP3      10245           0.0000000000
     55651     10445  TIP3      H2            -12.0524650821      -16.2876092647      -25.0883164257  TIP3      10245           0.0000000000
     55652     10446  TIP3      OH2           -10.9118457230      -19.0986820318      -25.1334265839  TIP3      10246           0.0000000000
     55653     10446  TIP3      H1            -11.2715813492      -18.4399622331      -24.5244946712  TIP3      10246           0.0000000000
     55654     10446  TIP3      H2            -10.2569249195      -18.5475503293      -25.6190222541  TIP3      10246           0.0000000000
     55655     10447  TIP3      OH2           -13.9184548674       -4.7231083693      -28.0038753546  TIP3      10247           0.0000000000
     55656     10447  TIP3      H1            -13.8272835394       -3.9072094677      -28.5522841885  TIP3      10247           0.0000000000
     55657     10447  TIP3      H2            -14.1885560447       -4.3546516184      -27.1363553517  TIP3      10247           0.0000000000
     55658     10448  TIP3      OH2           -15.2769522066      -18.0009154753      -28.4166741670  TIP3      10248           0.0000000000
     55659     10448  TIP3      H1            -15.3271190950      -17.1031647708      -28.0307452181  TIP3      10248           0.0000000000
     55660     10448  TIP3      H2            -14.3677274913      -18.2437732991      -28.1529913722  TIP3      10248           0.0000000000
     55661     10449  TIP3      OH2            -6.3887956742      -13.5438524357      -21.9869854918  TIP3      10249           0.0000000000
     55662     10449  TIP3      H1             -7.3044954989      -13.8275093030      -22.2210500555  TIP3      10249           0.0000000000
     55663     10449  TIP3      H2             -6.1351170513      -14.2144294221      -21.3596542612  TIP3      10249           0.0000000000
     55664     10450  TIP3      OH2           -17.0441884909       -7.5591485227      -29.3776313892  TIP3      10250           0.0000000000
     55665     10450  TIP3      H1            -16.3725424344       -6.9352397678      -29.0654171769  TIP3      10250           0.0000000000
     55666     10450  TIP3      H2            -16.5210068438       -8.0261159286      -30.0602325924  TIP3      10250           0.0000000000
     55667     10451  TIP3      OH2           -18.6993797514      -14.8849755649      -30.2289834523  TIP3      10251           0.0000000000
     55668     10451  TIP3      H1            -18.6826415177      -13.9303838346      -30.0151585033  TIP3      10251           0.0000000000
     55669     10451  TIP3      H2            -19.5911503280      -15.0585712197      -30.5396372900  TIP3      10251           0.0000000000
     55670     10452  TIP3      OH2           -18.9229825564       -6.1625436710      -25.3411760334  TIP3      10252           0.0000000000
     55671     10452  TIP3      H1            -19.7847013450       -5.7363448993      -25.4091316189  TIP3      10252           0.0000000000
     55672     10452  TIP3      H2            -18.4565964948       -5.7171657163      -26.0616125767  TIP3      10252           0.0000000000
     55673     10453  TIP3      OH2           -10.9053593524       -5.0948516175      -31.0454386528  TIP3      10253           0.0000000000
     55674     10453  TIP3      H1            -11.5990172736       -5.7540756013      -30.8225052333  TIP3      10253           0.0000000000
     55675     10453  TIP3      H2            -10.1877218215       -5.6936863400      -31.2959229339  TIP3      10253           0.0000000000
     55676     10454  TIP3      OH2            -6.3478021081       -5.3505561696      -30.8607729338  TIP3      10254           0.0000000000
     55677     10454  TIP3      H1             -6.0516322744       -6.1276024461      -30.3597545061  TIP3      10254           0.0000000000
     55678     10454  TIP3      H2             -5.5859516339       -5.1274938609      -31.4147849272  TIP3      10254           0.0000000000
     55679     10455  TIP3      OH2           -15.4635057272       -9.4121209628      -31.0472560928  TIP3      10255           0.0000000000
     55680     10455  TIP3      H1            -15.3189536757      -10.1704142302      -30.4557879398  TIP3      10255           0.0000000000
     55681     10455  TIP3      H2            -14.7127234539       -9.5288888476      -31.6605929590  TIP3      10255           0.0000000000
     55682     10456  TIP3      OH2           -10.0317248956       -8.3001408760      -31.2685417182  TIP3      10256           0.0000000000
     55683     10456  TIP3      H1            -10.3006148753       -8.2202211655      -30.3388742797  TIP3      10256           0.0000000000
     55684     10456  TIP3      H2            -10.2192656177       -9.2581972492      -31.4111809333  TIP3      10256           0.0000000000
     55685     10457  TIP3      OH2           -14.2437367911      -11.3952945247      -28.6199378693  TIP3      10257           0.0000000000
     55686     10457  TIP3      H1            -14.7589984434      -11.9272906085      -27.9922650828  TIP3      10257           0.0000000000
     55687     10457  TIP3      H2            -13.9555815747      -12.0710004611      -29.2741011318  TIP3      10257           0.0000000000
     55688     10458  TIP3      OH2           -13.1816225527      -13.1697099268      -30.4180280742  TIP3      10258           0.0000000000
     55689     10458  TIP3      H1            -13.3346837558      -13.2570842124      -31.3806676625  TIP3      10258           0.0000000000
     55690     10458  TIP3      H2            -12.2057010539      -13.1174224941      -30.3518209623  TIP3      10258           0.0000000000
     55691     10459  TIP3      OH2            -3.8541333465      -10.8496902441      -31.0069490042  TIP3      10259           0.0000000000
     55692     10459  TIP3      H1             -4.0438716311      -11.2300431019      -31.8781189462  TIP3      10259           0.0000000000
     55693     10459  TIP3      H2             -3.7649307646       -9.8874502539      -31.1922039616  TIP3      10259           0.0000000000
     55694     10460  TIP3      OH2           -13.3516364217       -2.4650946329      -29.3369321265  TIP3      10260           0.0000000000
     55695     10460  TIP3      H1            -12.3844217930       -2.3837865098      -29.2703785510  TIP3      10260           0.0000000000
     55696     10460  TIP3      H2            -13.4982196662       -1.8663810300      -30.0788359892  TIP3      10260           0.0000000000
     55697     10461  TIP3      OH2           -19.8000716537       -7.8973283110      -29.8679865879  TIP3      10261           0.0000000000
     55698     10461  TIP3      H1            -18.8330693327       -7.8008882160      -29.6872897632  TIP3      10261           0.0000000000
     55699     10461  TIP3      H2            -19.7489141369       -8.5382667983      -30.6165992830  TIP3      10261           0.0000000000
     55700     10462  TIP3      OH2           -21.0067350866       -2.4917625381      -24.8990537015  TIP3      10262           0.0000000000
     55701     10462  TIP3      H1            -21.7032385616       -2.9825825936      -25.3946833433  TIP3      10262           0.0000000000
     55702     10462  TIP3      H2            -20.7257778412       -3.1682297935      -24.2531818011  TIP3      10262           0.0000000000
     55703     10463  TIP3      OH2           -20.2426296749       -4.3481875418      -23.0646631518  TIP3      10263           0.0000000000
     55704     10463  TIP3      H1            -20.4834412740       -5.2645666045      -22.8507365065  TIP3      10263           0.0000000000
     55705     10463  TIP3      H2            -19.9534448443       -4.0720378334      -22.1868143079  TIP3      10263           0.0000000000
     55706     10464  TIP3      OH2            -3.3177540495       -9.9290737636      -27.0510749349  TIP3      10264           0.0000000000
     55707     10464  TIP3      H1             -2.4510375215       -9.5379573297      -26.8600441104  TIP3      10264           0.0000000000
     55708     10464  TIP3      H2             -3.3320664302      -10.6499367460      -26.3827410626  TIP3      10264           0.0000000000
     55709     10465  TIP3      OH2            -2.9895072368      -11.8295384489      -25.1596835242  TIP3      10265           0.0000000000
     55710     10465  TIP3      H1             -3.7058330483      -12.3723602212      -24.7660160826  TIP3      10265           0.0000000000
     55711     10465  TIP3      H2             -2.3443858955      -11.7138624939      -24.4296458668  TIP3      10265           0.0000000000
     55712     10466  TIP3      OH2            -2.6592647367      -12.0327122150      -28.7700890811  TIP3      10266           0.0000000000
     55713     10466  TIP3      H1             -3.2261366908      -11.6926050369      -29.4942899547  TIP3      10266           0.0000000000
     55714     10466  TIP3      H2             -2.7603504022      -11.3185489875      -28.1132815193  TIP3      10266           0.0000000000
     55715     10467  TIP3      OH2            -4.2836050707      -14.8057289416      -30.2587894577  TIP3      10267           0.0000000000
     55716     10467  TIP3      H1             -4.2088960121      -14.1394397616      -30.9531658089  TIP3      10267           0.0000000000
     55717     10467  TIP3      H2             -4.4718032072      -15.6284582607      -30.7551621023  TIP3      10267           0.0000000000
     55718     10468  TIP3      OH2            -5.1001487452      -13.3917096515      -24.5597926265  TIP3      10268           0.0000000000
     55719     10468  TIP3      H1             -5.2962287102      -14.3310525198      -24.6716432642  TIP3      10268           0.0000000000
     55720     10468  TIP3      H2             -5.5368214369      -13.1755659010      -23.7250917784  TIP3      10268           0.0000000000
     55721     10469  TIP3      OH2            -5.0362563919      -17.3274463834      -31.1222243969  TIP3      10269           0.0000000000
     55722     10469  TIP3      H1             -4.4491065819      -17.7691155119      -30.4800470392  TIP3      10269           0.0000000000
     55723     10469  TIP3      H2             -5.9021538918      -17.7453445725      -30.9721307053  TIP3      10269           0.0000000000
     55724     10470  TIP3      OH2            -5.4837555099      -15.8015684207      -26.1163511476  TIP3      10270           0.0000000000
     55725     10470  TIP3      H1             -5.1666920089      -16.7334274091      -26.0656877259  TIP3      10270           0.0000000000
     55726     10470  TIP3      H2             -4.6894294974      -15.3848758300      -26.4911685642  TIP3      10270           0.0000000000
     55727     10471  TIP3      OH2            -4.8560713827      -18.4887917701      -26.0531847610  TIP3      10271           0.0000000000
     55728     10471  TIP3      H1             -4.5726468785      -19.0071040832      -25.2785728832  TIP3      10271           0.0000000000
     55729     10471  TIP3      H2             -5.3944402759      -19.1426092200      -26.5522444633  TIP3      10271           0.0000000000
     55730     10472  TIP3      OH2           -19.3281957322      -17.7144613376      -21.5637861538  TIP3      10272           0.0000000000
     55731     10472  TIP3      H1            -18.8836169217      -18.5272708187      -21.2736003298  TIP3      10272           0.0000000000
     55732     10472  TIP3      H2            -18.8241713702      -17.0106655506      -21.1300106667  TIP3      10272           0.0000000000
     55733     10473  TIP3      OH2            -2.9838727040      -18.4781224883      -29.5276688286  TIP3      10273           0.0000000000
     55734     10473  TIP3      H1             -2.5749054185      -19.1888971916      -30.0717029132  TIP3      10273           0.0000000000
     55735     10473  TIP3      H2             -2.2782298934      -17.8148584747      -29.4923628607  TIP3      10273           0.0000000000
     55736     10474  TIP3      OH2           -20.6557088509      -18.4467597208      -26.4113848857  TIP3      10274           0.0000000000
     55737     10474  TIP3      H1            -21.5979640900      -18.2670641249      -26.5588101849  TIP3      10274           0.0000000000
     55738     10474  TIP3      H2            -20.2372628657      -17.9470729305      -27.1312306670  TIP3      10274           0.0000000000
     55739     10475  TIP3      OH2            -5.9310585752       -3.5214524305      -24.4191666458  TIP3      10275           0.0000000000
     55740     10475  TIP3      H1             -5.2786209364       -3.7995336452      -25.0977944433  TIP3      10275           0.0000000000
     55741     10475  TIP3      H2             -5.3919609948       -2.9814067373      -23.8232581223  TIP3      10275           0.0000000000
     55742     10476  TIP3      OH2            -5.4019584769      -20.7501672582      -21.9931111392  TIP3      10276           0.0000000000
     55743     10476  TIP3      H1             -4.7721472352      -20.2824410972      -22.5804322758  TIP3      10276           0.0000000000
     55744     10476  TIP3      H2             -6.3117993631      -20.4947941994      -22.2397686583  TIP3      10276           0.0000000000
     55745     10477  TIP3      OH2            -3.7679441378      -19.5230696380      -23.7328399989  TIP3      10277           0.0000000000
     55746     10477  TIP3      H1             -3.0995643272      -20.1406159228      -24.1407860136  TIP3      10277           0.0000000000
     55747     10477  TIP3      H2             -3.2125861602      -18.7122877929      -23.6856566348  TIP3      10277           0.0000000000
     55748     10478  TIP3      OH2           -18.1667399943      -20.2089736719      -24.3157929157  TIP3      10278           0.0000000000
     55749     10478  TIP3      H1            -19.0084140144      -20.4273897969      -24.7423730914  TIP3      10278           0.0000000000
     55750     10478  TIP3      H2            -17.7437178099      -21.0803873625      -24.2432280258  TIP3      10278           0.0000000000
     55751     10479  TIP3      OH2           -19.4253115699      -20.4777919418      -28.5105449838  TIP3      10279           0.0000000000
     55752     10479  TIP3      H1            -18.9341699364      -19.8205800910      -29.0375454279  TIP3      10279           0.0000000000
     55753     10479  TIP3      H2            -19.9868349308      -19.9028445632      -27.9596545068  TIP3      10279           0.0000000000
     55754     10480  TIP3      OH2           -13.6513840486      -20.3645473942      -24.4257140659  TIP3      10280           0.0000000000
     55755     10480  TIP3      H1            -12.8014292885      -19.9005614040      -24.5108672265  TIP3      10280           0.0000000000
     55756     10480  TIP3      H2            -13.7675066823      -20.4778703458      -23.4798361583  TIP3      10280           0.0000000000
     55757     10481  TIP3      OH2            -7.9863702485      -20.2891373036      -22.7899601464  TIP3      10281           0.0000000000
     55758     10481  TIP3      H1             -8.0764112809      -20.1587856625      -23.7436274281  TIP3      10281           0.0000000000
     55759     10481  TIP3      H2             -8.3153243491      -21.1894267268      -22.6882829594  TIP3      10281           0.0000000000
     55760     10482  TIP3      OH2            -6.7438118853      -20.2469797842      -27.1003463063  TIP3      10282           0.0000000000
     55761     10482  TIP3      H1             -7.4983359096      -19.6724933843      -27.3063831703  TIP3      10282           0.0000000000
     55762     10482  TIP3      H2             -7.1812023943      -21.1109014546      -26.9116727821  TIP3      10282           0.0000000000
     55763     10483  TIP3      OH2           -19.5124485711       -4.5276180540      -27.4788117953  TIP3      10283           0.0000000000
     55764     10483  TIP3      H1            -20.1691609356       -4.5427888337      -28.1991542869  TIP3      10283           0.0000000000
     55765     10483  TIP3      H2            -19.5153353199       -3.5718546759      -27.3112778589  TIP3      10283           0.0000000000
     55766     10484  TIP3      OH2           -17.5931204386      -18.5183076980      -30.0201359250  TIP3      10284           0.0000000000
     55767     10484  TIP3      H1            -17.0641207898      -19.1522006865      -30.5300281437  TIP3      10284           0.0000000000
     55768     10484  TIP3      H2            -16.9359458286      -18.2104735319      -29.3675858609  TIP3      10284           0.0000000000
     55769     10485  TIP3      OH2           -12.5795223156      -18.2807952467      -27.5874102037  TIP3      10285           0.0000000000
     55770     10485  TIP3      H1            -12.3174127791      -18.8687736086      -26.8634962684  TIP3      10285           0.0000000000
     55771     10485  TIP3      H2            -12.4960965705      -17.4176650475      -27.1258380689  TIP3      10285           0.0000000000
     55772     10486  TIP3      OH2           -10.6368605049       -3.2149682668      -29.1479941578  TIP3      10286           0.0000000000
     55773     10486  TIP3      H1             -9.7190355601       -2.9906040810      -29.3702953082  TIP3      10286           0.0000000000
     55774     10486  TIP3      H2            -10.8571533600       -3.7369649501      -29.9483473634  TIP3      10286           0.0000000000
     55775     10487  TIP3      OH2            -3.9487834240       -3.7119000030      -26.4280110835  TIP3      10287           0.0000000000
     55776     10487  TIP3      H1             -4.1355107520       -4.4964002983      -26.9972813631  TIP3      10287           0.0000000000
     55777     10487  TIP3      H2             -4.0133237891       -2.9788350585      -27.0717396340  TIP3      10287           0.0000000000
     55778     10488  TIP3      OH2           -17.7186070335       -3.5396810717      -30.5360116021  TIP3      10288           0.0000000000
     55779     10488  TIP3      H1            -17.9772003726       -3.2814071529      -29.6416705249  TIP3      10288           0.0000000000
     55780     10488  TIP3      H2            -16.9351424896       -4.1026951757      -30.3834187212  TIP3      10288           0.0000000000
     55781     10489  TIP3      OH2             9.7559914620      -11.0913358750      -24.3400751578  TIP3      10289           0.0000000000
     55782     10489  TIP3      H1              9.7274873324      -10.1172307123      -24.3834829165  TIP3      10289           0.0000000000
     55783     10489  TIP3      H2              9.0395191646      -11.3473159540      -24.9436673789  TIP3      10289           0.0000000000
     55784     10490  TIP3      OH2             8.5705884860      -11.8126407878      -20.8411000653  TIP3      10290           0.0000000000
     55785     10490  TIP3      H1              8.6513244511      -12.5304655315      -20.2061690104  TIP3      10290           0.0000000000
     55786     10490  TIP3      H2              8.3707616909      -12.3152430191      -21.6474681918  TIP3      10290           0.0000000000
     55787     10491  TIP3      OH2            -1.4831354475      -14.1610182164      -25.3005665154  TIP3      10291           0.0000000000
     55788     10491  TIP3      H1             -1.8753477296      -13.2744386004      -25.4036887457  TIP3      10291           0.0000000000
     55789     10491  TIP3      H2             -2.0255233461      -14.6670909186      -25.9202552976  TIP3      10291           0.0000000000
     55790     10492  TIP3      OH2            -0.8138720094      -11.9446180355      -23.2012945205  TIP3      10292           0.0000000000
     55791     10492  TIP3      H1             -0.4873604156      -12.6939392119      -22.7168396873  TIP3      10292           0.0000000000
     55792     10492  TIP3      H2             -0.0816924808      -11.7917822147      -23.8153917668  TIP3      10292           0.0000000000
     55793     10493  TIP3      OH2             9.4320539123       -3.7150536968      -22.3269024924  TIP3      10293           0.0000000000
     55794     10493  TIP3      H1             10.0381239429       -4.4315212022      -22.6320698971  TIP3      10293           0.0000000000
     55795     10493  TIP3      H2              9.2203949196       -3.9930588016      -21.4271935287  TIP3      10293           0.0000000000
     55796     10494  TIP3      OH2             3.1288522540      -16.8710485297      -22.9243432347  TIP3      10294           0.0000000000
     55797     10494  TIP3      H1              3.4071666644      -16.0681750032      -23.3891818066  TIP3      10294           0.0000000000
     55798     10494  TIP3      H2              2.8905663295      -17.4769802164      -23.6370667459  TIP3      10294           0.0000000000
     55799     10495  TIP3      OH2            11.0198858343      -16.8279737920      -24.5382440630  TIP3      10295           0.0000000000
     55800     10495  TIP3      H1             11.6665336906      -17.1187606355      -23.8509862402  TIP3      10295           0.0000000000
     55801     10495  TIP3      H2             11.5624039855      -16.1933181247      -25.0233617000  TIP3      10295           0.0000000000
     55802     10496  TIP3      OH2             5.0741052555      -12.8934362530      -22.8814433218  TIP3      10296           0.0000000000
     55803     10496  TIP3      H1              5.7164168919      -13.4615677686      -22.4262022151  TIP3      10296           0.0000000000
     55804     10496  TIP3      H2              4.5559216430      -13.5838001998      -23.3430362795  TIP3      10296           0.0000000000
     55805     10497  TIP3      OH2             9.4970071796       -8.4846651067      -25.2798950884  TIP3      10297           0.0000000000
     55806     10497  TIP3      H1              9.1943784097       -8.7873682002      -26.1466596453  TIP3      10297           0.0000000000
     55807     10497  TIP3      H2              9.1522732184       -7.5631651811      -25.2516118225  TIP3      10297           0.0000000000
     55808     10498  TIP3      OH2            12.7533912848      -17.4624976646      -22.4637648791  TIP3      10298           0.0000000000
     55809     10498  TIP3      H1             12.6503763642      -18.2587078479      -21.9343142449  TIP3      10298           0.0000000000
     55810     10498  TIP3      H2             13.4844306018      -17.0364256015      -21.9838696332  TIP3      10298           0.0000000000
     55811     10499  TIP3      OH2            -0.7885181864       -8.7212859863      -26.9789741400  TIP3      10299           0.0000000000
     55812     10499  TIP3      H1             -1.0397015536       -8.3772365616      -27.8551767105  TIP3      10299           0.0000000000
     55813     10499  TIP3      H2             -0.6900986812       -7.8960061312      -26.4575810062  TIP3      10299           0.0000000000
     55814     10500  TIP3      OH2            11.1053719294       -5.2902633760      -23.6138211796  TIP3      10300           0.0000000000
     55815     10500  TIP3      H1             11.5054775536       -5.9801526159      -24.1877657596  TIP3      10300           0.0000000000
     55816     10500  TIP3      H2             11.4964819478       -4.4802050122      -24.0105371571  TIP3      10300           0.0000000000
     55817     10501  TIP3      OH2            12.2761412437       -7.3287357221      -25.0767812208  TIP3      10301           0.0000000000
     55818     10501  TIP3      H1             11.9943830585       -8.0006677851      -25.7291371833  TIP3      10301           0.0000000000
     55819     10501  TIP3      H2             12.3385893692       -7.8547462577      -24.2861657518  TIP3      10301           0.0000000000
     55820     10502  TIP3      OH2             8.4043306382      -11.8301914088      -26.8525347878  TIP3      10302           0.0000000000
     55821     10502  TIP3      H1              7.7045556715      -11.2730769516      -27.2284155003  TIP3      10302           0.0000000000
     55822     10502  TIP3      H2              9.1104697189      -11.7563827833      -27.5213821233  TIP3      10302           0.0000000000
     55823     10503  TIP3      OH2             8.4907748811      -13.2761738776      -29.8589400269  TIP3      10303           0.0000000000
     55824     10503  TIP3      H1              9.1857612420      -13.3036069564      -29.1835578686  TIP3      10303           0.0000000000
     55825     10503  TIP3      H2              8.7961146760      -13.9980181069      -30.4238112672  TIP3      10303           0.0000000000
     55826     10504  TIP3      OH2            11.8552065643      -11.6354045313      -25.9362420606  TIP3      10304           0.0000000000
     55827     10504  TIP3      H1             11.0863473771      -11.4455779081      -25.3372042939  TIP3      10304           0.0000000000
     55828     10504  TIP3      H2             12.3143463656      -12.3230764531      -25.4198914732  TIP3      10304           0.0000000000
     55829     10505  TIP3      OH2             3.4504157227      -10.9777833856      -24.0078478421  TIP3      10305           0.0000000000
     55830     10505  TIP3      H1              3.1315406442      -11.3864981054      -24.8396861050  TIP3      10305           0.0000000000
     55831     10505  TIP3      H2              4.0746091927      -11.6629245716      -23.6660161827  TIP3      10305           0.0000000000
     55832     10506  TIP3      OH2            10.7230303488      -12.4487696344      -28.2675106955  TIP3      10306           0.0000000000
     55833     10506  TIP3      H1             11.2814332929      -12.2644576040      -27.4736317651  TIP3      10306           0.0000000000
     55834     10506  TIP3      H2             11.1692797150      -11.9555531526      -28.9905631523  TIP3      10306           0.0000000000
     55835     10507  TIP3      OH2             8.4282843048       -5.7509115576      -24.7958472050  TIP3      10307           0.0000000000
     55836     10507  TIP3      H1              8.8688429181       -5.4068429816      -24.0169694921  TIP3      10307           0.0000000000
     55837     10507  TIP3      H2              7.8786707786       -4.9988168248      -25.0563811265  TIP3      10307           0.0000000000
     55838     10508  TIP3      OH2            14.4819480226      -20.7057850796      -28.3345848039  TIP3      10308           0.0000000000
     55839     10508  TIP3      H1             13.5250892926      -20.6040511269      -28.1192669593  TIP3      10308           0.0000000000
     55840     10508  TIP3      H2             14.6616532923      -19.8660848891      -28.7951337742  TIP3      10308           0.0000000000
     55841     10509  TIP3      OH2             2.4235277254      -11.9664576644      -26.4051818954  TIP3      10309           0.0000000000
     55842     10509  TIP3      H1              2.1353384761      -11.1798998689      -26.9096080624  TIP3      10309           0.0000000000
     55843     10509  TIP3      H2              1.7736005613      -12.6323921160      -26.6338026099  TIP3      10309           0.0000000000
     55844     10510  TIP3      OH2            15.5660125763       -6.3607686161      -30.0041442359  TIP3      10310           0.0000000000
     55845     10510  TIP3      H1             15.7333571557       -5.4155488387      -29.8495967774  TIP3      10310           0.0000000000
     55846     10510  TIP3      H2             16.4897537532       -6.6710360706      -30.0211846291  TIP3      10310           0.0000000000
     55847     10511  TIP3      OH2             7.9228268324       -2.8048320790      -26.3737605602  TIP3      10311           0.0000000000
     55848     10511  TIP3      H1              7.8130532680       -2.8825391574      -27.3370797490  TIP3      10311           0.0000000000
     55849     10511  TIP3      H2              7.9305293867       -1.8445049403      -26.2282820295  TIP3      10311           0.0000000000
     55850     10512  TIP3      OH2             1.6038608595       -3.9648680612      -24.5803033529  TIP3      10312           0.0000000000
     55851     10512  TIP3      H1              1.7244105980       -4.3228008420      -23.6684053692  TIP3      10312           0.0000000000
     55852     10512  TIP3      H2              0.7216795722       -4.3100977672      -24.7833752812  TIP3      10312           0.0000000000
     55853     10513  TIP3      OH2            10.9827240246       -3.5938543158      -29.3986018286  TIP3      10313           0.0000000000
     55854     10513  TIP3      H1             11.4357343481       -4.3478212262      -29.8393628966  TIP3      10313           0.0000000000
     55855     10513  TIP3      H2             11.0199765708       -3.8595010119      -28.4565012535  TIP3      10313           0.0000000000
     55856     10514  TIP3      OH2            10.6758738988       -3.6617335618      -26.6403498511  TIP3      10314           0.0000000000
     55857     10514  TIP3      H1              9.7145740317       -3.5821172490      -26.4627166115  TIP3      10314           0.0000000000
     55858     10514  TIP3      H2             10.9058336273       -4.3975333805      -26.0571865790  TIP3      10314           0.0000000000
     55859     10515  TIP3      OH2             3.3783974026      -19.7917618153      -20.5159125810  TIP3      10315           0.0000000000
     55860     10515  TIP3      H1              2.5332524679      -19.8184584996      -20.9983901621  TIP3      10315           0.0000000000
     55861     10515  TIP3      H2              3.4272062711      -18.8917588277      -20.1737395481  TIP3      10315           0.0000000000
     55862     10516  TIP3      OH2            12.1845830970      -11.4161900624      -30.4501446610  TIP3      10316           0.0000000000
     55863     10516  TIP3      H1             12.1570086185      -11.5999190748      -31.4173356166  TIP3      10316           0.0000000000
     55864     10516  TIP3      H2             13.0387587064      -10.9634586074      -30.4056007048  TIP3      10316           0.0000000000
     55865     10517  TIP3      OH2             7.7846525067      -17.4869649299      -29.9732559500  TIP3      10317           0.0000000000
     55866     10517  TIP3      H1              7.4688390354      -17.5357741260      -29.0448080241  TIP3      10317           0.0000000000
     55867     10517  TIP3      H2              7.4594085604      -18.3672696879      -30.2436386169  TIP3      10317           0.0000000000
     55868     10518  TIP3      OH2             3.5252980531      -14.6146650913      -24.5479249083  TIP3      10318           0.0000000000
     55869     10518  TIP3      H1              2.6029519601      -14.9258796678      -24.6293632349  TIP3      10318           0.0000000000
     55870     10518  TIP3      H2              3.9442478481      -14.9920891863      -25.3514238685  TIP3      10318           0.0000000000
     55871     10519  TIP3      OH2             9.2202687410      -14.0129802008      -25.6555253254  TIP3      10319           0.0000000000
     55872     10519  TIP3      H1              8.6748525973      -13.3224164544      -26.0977934267  TIP3      10319           0.0000000000
     55873     10519  TIP3      H2              9.7653521890      -14.3081046397      -26.3998632130  TIP3      10319           0.0000000000
     55874     10520  TIP3      OH2             9.9540582140      -14.7252660183      -22.9093406871  TIP3      10320           0.0000000000
     55875     10520  TIP3      H1              9.8250044285      -14.1014683597      -23.6372347366  TIP3      10320           0.0000000000
     55876     10520  TIP3      H2             10.2430322396      -15.5103885620      -23.3866552831  TIP3      10320           0.0000000000
     55877     10521  TIP3      OH2             4.5830298402      -17.1282166125      -30.8424619159  TIP3      10321           0.0000000000
     55878     10521  TIP3      H1              4.1521079943      -17.5250276850      -30.0536425217  TIP3      10321           0.0000000000
     55879     10521  TIP3      H2              3.8679278401      -16.6921513766      -31.3211962594  TIP3      10321           0.0000000000
     55880     10522  TIP3      OH2            -2.1373905306      -17.4270407095      -23.6793924277  TIP3      10322           0.0000000000
     55881     10522  TIP3      H1             -1.3821074617      -17.4189588013      -23.0911775784  TIP3      10322           0.0000000000
     55882     10522  TIP3      H2             -1.7192086256      -17.7596019245      -24.5050825810  TIP3      10322           0.0000000000
     55883     10523  TIP3      OH2            -0.8708741287      -16.7016707069      -28.3678991476  TIP3      10323           0.0000000000
     55884     10523  TIP3      H1             -0.3503880733      -16.0787183307      -28.9078929841  TIP3      10323           0.0000000000
     55885     10523  TIP3      H2             -1.5376646330      -16.0785127219      -28.0086534060  TIP3      10323           0.0000000000
     55886     10524  TIP3      OH2             5.8996433303      -17.1346920845      -22.1883237689  TIP3      10324           0.0000000000
     55887     10524  TIP3      H1              5.2862626493      -17.1511320343      -22.9746043057  TIP3      10324           0.0000000000
     55888     10524  TIP3      H2              6.6715052355      -17.2146119962      -22.7452626760  TIP3      10324           0.0000000000
     55889     10525  TIP3      OH2             0.8836060162      -15.5548844226      -24.6372198412  TIP3      10325           0.0000000000
     55890     10525  TIP3      H1              0.0002548670      -15.3833516513      -25.0101384146  TIP3      10325           0.0000000000
     55891     10525  TIP3      H2              1.1977457289      -16.3797438153      -25.0464834645  TIP3      10325           0.0000000000
     55892     10526  TIP3      OH2             4.5417588504      -15.4621132393      -27.0372975254  TIP3      10326           0.0000000000
     55893     10526  TIP3      H1              5.5015777781      -15.3955676420      -26.8377333220  TIP3      10326           0.0000000000
     55894     10526  TIP3      H2              4.3388110139      -14.7751616164      -27.6880321270  TIP3      10326           0.0000000000
     55895     10527  TIP3      OH2             3.2565166505      -14.3089380828      -29.4164079983  TIP3      10327           0.0000000000
     55896     10527  TIP3      H1              2.7371054747      -14.7104289149      -30.1298357379  TIP3      10327           0.0000000000
     55897     10527  TIP3      H2              4.0832207265      -14.1121375100      -29.8845652728  TIP3      10327           0.0000000000
     55898     10528  TIP3      OH2             7.3897313624      -14.3403565906      -21.5690943509  TIP3      10328           0.0000000000
     55899     10528  TIP3      H1              7.9653455815      -14.8677929544      -22.1496544694  TIP3      10328           0.0000000000
     55900     10528  TIP3      H2              7.2278235623      -14.9274471670      -20.8377994657  TIP3      10328           0.0000000000
     55901     10529  TIP3      OH2             2.3425250507      -18.1998700674      -25.2171174018  TIP3      10329           0.0000000000
     55902     10529  TIP3      H1              2.0975406989      -19.1383122600      -25.1742215547  TIP3      10329           0.0000000000
     55903     10529  TIP3      H2              3.2051718279      -18.2322448554      -25.6655756407  TIP3      10329           0.0000000000
     55904     10530  TIP3      OH2             6.6152511175       -9.7781886624      -27.5001627908  TIP3      10330           0.0000000000
     55905     10530  TIP3      H1              5.8267391693      -10.2735398023      -27.8211288351  TIP3      10330           0.0000000000
     55906     10530  TIP3      H2              6.3950716191       -9.6654474078      -26.5492319966  TIP3      10330           0.0000000000
     55907     10531  TIP3      OH2            10.4329822627      -16.9781278968      -29.3091234123  TIP3      10331           0.0000000000
     55908     10531  TIP3      H1              9.4804233579      -16.8192608522      -29.4312733437  TIP3      10331           0.0000000000
     55909     10531  TIP3      H2             10.7833339026      -16.1255776600      -28.9661936409  TIP3      10331           0.0000000000
     55910     10532  TIP3      OH2            11.1795903851      -15.0615063762      -27.7099619283  TIP3      10332           0.0000000000
     55911     10532  TIP3      H1             12.0548746683      -15.1830691175      -27.2863578288  TIP3      10332           0.0000000000
     55912     10532  TIP3      H2             11.2774746215      -14.2258440821      -28.1935387929  TIP3      10332           0.0000000000
     55913     10533  TIP3      OH2             1.7239936053      -10.4758744888      -21.7256512309  TIP3      10333           0.0000000000
     55914     10533  TIP3      H1              2.4588268462      -10.4634263904      -22.3569661860  TIP3      10333           0.0000000000
     55915     10533  TIP3      H2              1.8232947429      -11.2877367312      -21.2355954261  TIP3      10333           0.0000000000
     55916     10534  TIP3      OH2             8.7092110139       -8.3187106148      -28.4583836051  TIP3      10334           0.0000000000
     55917     10534  TIP3      H1              8.3631068736       -7.4756194287      -28.0985804532  TIP3      10334           0.0000000000
     55918     10534  TIP3      H2              7.9796038448       -8.9384000155      -28.2377573154  TIP3      10334           0.0000000000
     55919     10535  TIP3      OH2            16.0888614131      -14.9270782169      -27.9120127761  TIP3      10335           0.0000000000
     55920     10535  TIP3      H1             15.5160087799      -15.2049609212      -28.6517030978  TIP3      10335           0.0000000000
     55921     10535  TIP3      H2             16.1645142107      -13.9745230577      -28.1579173490  TIP3      10335           0.0000000000
     55922     10536  TIP3      OH2            14.3377876001       -6.0870167963      -27.5168377706  TIP3      10336           0.0000000000
     55923     10536  TIP3      H1             14.0084286667       -6.9263771753      -27.1757541273  TIP3      10336           0.0000000000
     55924     10536  TIP3      H2             14.6960138223       -6.3035654727      -28.3938595492  TIP3      10336           0.0000000000
     55925     10537  TIP3      OH2             4.1189675212       -6.9582980308      -24.3106402598  TIP3      10337           0.0000000000
     55926     10537  TIP3      H1              4.5898064073       -6.1318670554      -24.4796006215  TIP3      10337           0.0000000000
     55927     10537  TIP3      H2              3.2248626404       -6.7225533890      -24.5892212165  TIP3      10337           0.0000000000
     55928     10538  TIP3      OH2            -0.1328009732      -12.1017021716      -29.7320939768  TIP3      10338           0.0000000000
     55929     10538  TIP3      H1              0.4460159011      -11.4353263671      -29.3234676366  TIP3      10338           0.0000000000
     55930     10538  TIP3      H2             -1.0240139130      -11.7886439221      -29.4857037288  TIP3      10338           0.0000000000
     55931     10539  TIP3      OH2             5.5195672734       -9.2801561985      -24.8279007054  TIP3      10339           0.0000000000
     55932     10539  TIP3      H1              5.2035177145       -8.3638253192      -24.6842446777  TIP3      10339           0.0000000000
     55933     10539  TIP3      H2              4.8147542931       -9.7636962142      -24.3481778356  TIP3      10339           0.0000000000
     55934     10540  TIP3      OH2             4.2163293710       -4.2580608861      -25.2868276367  TIP3      10340           0.0000000000
     55935     10540  TIP3      H1              3.2460504951       -4.1459413631      -25.1527127422  TIP3      10340           0.0000000000
     55936     10540  TIP3      H2              4.5412333496       -3.4340239594      -24.8878928838  TIP3      10340           0.0000000000
     55937     10541  TIP3      OH2            11.8303658984       -8.0137476633      -29.6700480576  TIP3      10341           0.0000000000
     55938     10541  TIP3      H1             12.1238782413       -8.4877861431      -28.8657371965  TIP3      10341           0.0000000000
     55939     10541  TIP3      H2             10.8766649523       -8.1988062136      -29.5888693999  TIP3      10341           0.0000000000
     55940     10542  TIP3      OH2            16.2865582579       -3.6687400160      -29.4118844945  TIP3      10342           0.0000000000
     55941     10542  TIP3      H1             16.9698474443       -3.0128429759      -29.6447039874  TIP3      10342           0.0000000000
     55942     10542  TIP3      H2             15.5748938358       -3.0539202901      -29.1271835120  TIP3      10342           0.0000000000
     55943     10543  TIP3      OH2            12.6026369846       -9.3695466856      -27.4230243633  TIP3      10343           0.0000000000
     55944     10543  TIP3      H1             12.3627060034      -10.1674348147      -26.9059256413  TIP3      10343           0.0000000000
     55945     10543  TIP3      H2             13.5573411294       -9.3421449586      -27.2527350457  TIP3      10343           0.0000000000
     55946     10544  TIP3      OH2             5.9565032076       -6.9444371782      -31.1711066938  TIP3      10344           0.0000000000
     55947     10544  TIP3      H1              6.0538830513       -7.7072355947      -31.7639534664  TIP3      10344           0.0000000000
     55948     10544  TIP3      H2              5.5126519773       -7.3761555773      -30.4085384187  TIP3      10344           0.0000000000
     55949     10545  TIP3      OH2             4.7275544110       -7.4189717881      -28.7165735011  TIP3      10345           0.0000000000
     55950     10545  TIP3      H1              4.9971511929       -7.9294107017      -27.9418297981  TIP3      10345           0.0000000000
     55951     10545  TIP3      H2              4.8162140491       -6.4903968577      -28.3978171551  TIP3      10345           0.0000000000
     55952     10546  TIP3      OH2             1.2672820765      -10.1715071389      -28.2422712824  TIP3      10346           0.0000000000
     55953     10546  TIP3      H1              0.5560891241       -9.7758417787      -27.6987725565  TIP3      10346           0.0000000000
     55954     10546  TIP3      H2              1.7760381686       -9.3920047084      -28.5300786584  TIP3      10346           0.0000000000
     55955     10547  TIP3      OH2             9.8448690982      -17.9096101853      -26.8361274893  TIP3      10347           0.0000000000
     55956     10547  TIP3      H1             10.0727342814      -17.4480412523      -27.6640033762  TIP3      10347           0.0000000000
     55957     10547  TIP3      H2             10.4138675806      -17.4664774019      -26.1911156979  TIP3      10347           0.0000000000
     55958     10548  TIP3      OH2             7.5338303267       -5.7546344248      -28.0239454157  TIP3      10348           0.0000000000
     55959     10548  TIP3      H1              6.7146347485       -5.2241228343      -27.9532016983  TIP3      10348           0.0000000000
     55960     10548  TIP3      H2              8.0710995912       -5.2039734019      -28.6115862055  TIP3      10348           0.0000000000
     55961     10549  TIP3      OH2             7.3474348462      -15.6240783279      -26.4530115008  TIP3      10349           0.0000000000
     55962     10549  TIP3      H1              8.1970253733      -15.4316546899      -26.0325414178  TIP3      10349           0.0000000000
     55963     10549  TIP3      H2              6.8916177748      -16.0131262899      -25.6711358043  TIP3      10349           0.0000000000
     55964     10550  TIP3      OH2             8.1618433279      -19.1820599108      -25.0541039215  TIP3      10350           0.0000000000
     55965     10550  TIP3      H1              7.5584565184      -18.5536330377      -24.6077103709  TIP3      10350           0.0000000000
     55966     10550  TIP3      H2              8.6569151142      -18.5498195301      -25.6118198926  TIP3      10350           0.0000000000
     55967     10551  TIP3      OH2             4.9366172065       -4.7212950008      -27.9956373281  TIP3      10351           0.0000000000
     55968     10551  TIP3      H1              5.0262627078       -3.9065354311      -28.5464092805  TIP3      10351           0.0000000000
     55969     10551  TIP3      H2              4.6647858467       -4.3565539429      -27.1237475004  TIP3      10351           0.0000000000
     55970     10552  TIP3      OH2             3.5856919831      -17.9957845811      -28.4256902460  TIP3      10352           0.0000000000
     55971     10552  TIP3      H1              3.5340454075      -17.1051184384      -28.0210366660  TIP3      10352           0.0000000000
     55972     10552  TIP3      H2              4.4857774733      -18.2454465007      -28.1431257676  TIP3      10352           0.0000000000
     55973     10553  TIP3      OH2             1.8126389440       -7.5647890061      -29.3820452552  TIP3      10353           0.0000000000
     55974     10553  TIP3      H1              2.4786130896       -6.9374913952      -29.0606566684  TIP3      10353           0.0000000000
     55975     10553  TIP3      H2              2.3387001125       -8.0273449598      -30.0656356188  TIP3      10353           0.0000000000
     55976     10554  TIP3      OH2             0.1568301648      -14.8856869464      -30.2318184517  TIP3      10354           0.0000000000
     55977     10554  TIP3      H1              0.1761364102      -13.9274386219      -30.0202395812  TIP3      10354           0.0000000000
     55978     10554  TIP3      H2             -0.7353964382      -15.0578428232      -30.5388174503  TIP3      10354           0.0000000000
     55979     10555  TIP3      OH2             0.9074513296      -20.0435709232      -21.5292263285  TIP3      10355           0.0000000000
     55980     10555  TIP3      H1              0.7615032327      -20.0883032270      -22.4878406152  TIP3      10355           0.0000000000
     55981     10555  TIP3      H2              0.5565854275      -20.8885083905      -21.1898663104  TIP3      10355           0.0000000000
     55982     10556  TIP3      OH2            -0.0884331748       -6.2009194630      -25.3715426286  TIP3      10356           0.0000000000
     55983     10556  TIP3      H1             -0.9221196345       -5.7129173708      -25.3971746331  TIP3      10356           0.0000000000
     55984     10556  TIP3      H2              0.4066037571       -5.7116096005      -26.0470391514  TIP3      10356           0.0000000000
     55985     10557  TIP3      OH2             7.9505791186       -5.0947696043      -31.0469883642  TIP3      10357           0.0000000000
     55986     10557  TIP3      H1              7.2573330110       -5.7539274690      -30.8225485385  TIP3      10357           0.0000000000
     55987     10557  TIP3      H2              8.6684693707       -5.6939875802      -31.2965473145  TIP3      10357           0.0000000000
     55988     10558  TIP3      OH2            12.5074772349       -5.3534095668      -30.8631442044  TIP3      10358           0.0000000000
     55989     10558  TIP3      H1             12.8057185336       -6.1279637802      -30.3587103175  TIP3      10358           0.0000000000
     55990     10558  TIP3      H2             13.2696651279       -5.1259577936      -31.4187387818  TIP3      10358           0.0000000000
     55991     10559  TIP3      OH2             3.3962004394       -9.4090388338      -31.0446317841  TIP3      10359           0.0000000000
     55992     10559  TIP3      H1              3.5346740608      -10.1700312512      -30.4601372054  TIP3      10359           0.0000000000
     55993     10559  TIP3      H2              4.1441772673       -9.5282688391      -31.6616604242  TIP3      10359           0.0000000000
     55994     10560  TIP3      OH2             8.8258648324       -8.3003108604      -31.2663939669  TIP3      10360           0.0000000000
     55995     10560  TIP3      H1              8.5549317058       -8.2200797481      -30.3380763891  TIP3      10360           0.0000000000
     55996     10560  TIP3      H2              8.6365361107       -9.2577581980      -31.4117074113  TIP3      10360           0.0000000000
     55997     10561  TIP3      OH2             4.6041326707      -11.3899619411      -28.6251405113  TIP3      10361           0.0000000000
     55998     10561  TIP3      H1              4.0986752931      -11.9301268815      -27.9973389842  TIP3      10361           0.0000000000
     55999     10561  TIP3      H2              4.8985587369      -12.0622882722      -29.2796592090  TIP3      10361           0.0000000000
     56000     10562  TIP3      OH2             5.6783551259      -13.1758126911      -30.4108642406  TIP3      10362           0.0000000000
     56001     10562  TIP3      H1              5.5225387641      -13.2677197689      -31.3672546055  TIP3      10362           0.0000000000
     56002     10562  TIP3      H2              6.6537965252      -13.1130995693      -30.3519293862  TIP3      10362           0.0000000000
     56003     10563  TIP3      OH2            14.9971021606      -10.8533146969      -30.9952523414  TIP3      10363           0.0000000000
     56004     10563  TIP3      H1             14.8135353692      -11.2292267328      -31.8745694031  TIP3      10363           0.0000000000
     56005     10563  TIP3      H2             15.0920094481       -9.8892662932      -31.1909492280  TIP3      10363           0.0000000000
     56006     10564  TIP3      OH2             5.5058237272       -2.4661993742      -29.3373329611  TIP3      10364           0.0000000000
     56007     10564  TIP3      H1              6.4729087113       -2.3837295165      -29.2707993660  TIP3      10364           0.0000000000
     56008     10564  TIP3      H2              5.3587396160       -1.8666782584      -30.0787329827  TIP3      10364           0.0000000000
     56009     10565  TIP3      OH2            -0.9442184207       -7.8958553280      -29.8687907452  TIP3      10365           0.0000000000
     56010     10565  TIP3      H1              0.0228879695       -7.8010788724      -29.6888765352  TIP3      10365           0.0000000000
     56011     10565  TIP3      H2             -0.8932160611       -8.5385887555      -30.6157752114  TIP3      10365           0.0000000000
     56012     10566  TIP3      OH2            -2.1644266794       -2.5074862280      -24.8995942560  TIP3      10366           0.0000000000
     56013     10566  TIP3      H1             -2.8638500428       -2.9998532836      -25.3881238495  TIP3      10366           0.0000000000
     56014     10566  TIP3      H2             -1.8704335626       -3.1596867068      -24.2365676055  TIP3      10366           0.0000000000
     56015     10567  TIP3      OH2            -1.3509182141       -4.3534808575      -23.0474186844  TIP3      10367           0.0000000000
     56016     10567  TIP3      H1             -1.6824838426       -5.2419387844      -22.8671922304  TIP3      10367           0.0000000000
     56017     10567  TIP3      H2             -1.0865091294       -4.0439877699      -22.1663080560  TIP3      10367           0.0000000000
     56018     10568  TIP3      OH2            15.5200123584       -9.9148540086      -27.0177807947  TIP3      10368           0.0000000000
     56019     10568  TIP3      H1             16.4067362796       -9.5454869515      -26.8695575948  TIP3      10368           0.0000000000
     56020     10568  TIP3      H2             15.5300281529      -10.6552953450      -26.3716445121  TIP3      10368           0.0000000000
     56021     10569  TIP3      OH2            15.8819157074      -11.8338954395      -25.1439615386  TIP3      10369           0.0000000000
     56022     10569  TIP3      H1             15.1598336250      -12.3665324100      -24.7437795463  TIP3      10369           0.0000000000
     56023     10569  TIP3      H2             16.5124629083      -11.7342516974      -24.3965278778  TIP3      10369           0.0000000000
     56024     10570  TIP3      OH2            16.1953736781      -12.0298954888      -28.7688155543  TIP3      10370           0.0000000000
     56025     10570  TIP3      H1             15.6283977155      -11.6909707668      -29.4943673933  TIP3      10370           0.0000000000
     56026     10570  TIP3      H2             16.0950109422      -11.3180868606      -28.1112921101  TIP3      10370           0.0000000000
     56027     10571  TIP3      OH2            14.5680733807      -14.8025703556      -30.2535109657  TIP3      10371           0.0000000000
     56028     10571  TIP3      H1             14.6424465553      -14.1398351096      -30.9502050480  TIP3      10371           0.0000000000
     56029     10571  TIP3      H2             14.3845971756      -15.6253265113      -30.7498121191  TIP3      10371           0.0000000000
     56030     10572  TIP3      OH2            13.7065237417      -13.3855345118      -24.5740608845  TIP3      10372           0.0000000000
     56031     10572  TIP3      H1             13.5762985088      -14.3444161683      -24.6437053861  TIP3      10372           0.0000000000
     56032     10572  TIP3      H2             13.3671944202      -13.1914868203      -23.6900654847  TIP3      10372           0.0000000000
     56033     10573  TIP3      OH2            13.8228728640      -17.3341135079      -31.1233790069  TIP3      10373           0.0000000000
     56034     10573  TIP3      H1             14.4067652377      -17.7704611965      -30.4779513890  TIP3      10373           0.0000000000
     56035     10573  TIP3      H2             12.9512350140      -17.7413007685      -30.9721332575  TIP3      10373           0.0000000000
     56036     10574  TIP3      OH2            13.3676723550      -15.8031377153      -26.1868972371  TIP3      10374           0.0000000000
     56037     10574  TIP3      H1             13.6841157976      -16.7244219478      -26.0342591310  TIP3      10374           0.0000000000
     56038     10574  TIP3      H2             14.1841566802      -15.3938295245      -26.5047476342  TIP3      10374           0.0000000000
     56039     10575  TIP3      OH2            14.0749480210      -18.5272088101      -26.0982648775  TIP3      10375           0.0000000000
     56040     10575  TIP3      H1             14.2455279229      -18.9474625916      -25.2269230192  TIP3      10375           0.0000000000
     56041     10575  TIP3      H2             13.4574654213      -19.1542750210      -26.5282793220  TIP3      10375           0.0000000000
     56042     10576  TIP3      OH2            15.8718689255      -18.4757765149      -29.5407231281  TIP3      10376           0.0000000000
     56043     10576  TIP3      H1             16.2824401168      -19.1873507650      -30.0782373156  TIP3      10376           0.0000000000
     56044     10576  TIP3      H2             16.5788799323      -17.8152187644      -29.4845476310  TIP3      10376           0.0000000000
     56045     10577  TIP3      OH2            -1.8361693898      -18.4086163342      -26.3891992514  TIP3      10377           0.0000000000
     56046     10577  TIP3      H1             -2.7662617583      -18.2626035308      -26.5951657178  TIP3      10377           0.0000000000
     56047     10577  TIP3      H2             -1.3999634315      -17.9614835681      -27.1383210936  TIP3      10377           0.0000000000
     56048     10578  TIP3      OH2            12.9532276290       -3.4911657283      -24.4490917020  TIP3      10378           0.0000000000
     56049     10578  TIP3      H1             13.6099572062       -3.7813661110      -25.1130591987  TIP3      10378           0.0000000000
     56050     10578  TIP3      H2             13.5036604170       -3.0207711845      -23.8049104031  TIP3      10378           0.0000000000
     56051     10579  TIP3      OH2             2.2403491660       -5.0687804272      -22.1709540746  TIP3      10379           0.0000000000
     56052     10579  TIP3      H1              2.0479627616       -5.9575582112      -21.8522208576  TIP3      10379           0.0000000000
     56053     10579  TIP3      H2              3.0026895843       -4.8250483629      -21.6000811509  TIP3      10379           0.0000000000
     56054     10580  TIP3      OH2             4.7935075048       -4.5039098413      -21.2334646916  TIP3      10380           0.0000000000
     56055     10580  TIP3      H1              5.0284917279       -5.3980087318      -21.4891808719  TIP3      10380           0.0000000000
     56056     10580  TIP3      H2              4.8099201583       -4.5952963561      -20.2676714457  TIP3      10380           0.0000000000
     56057     10581  TIP3      OH2            13.3986231235      -20.8665487614      -22.0300593389  TIP3      10381           0.0000000000
     56058     10581  TIP3      H1             14.0164395121      -20.2044395751      -22.4101292810  TIP3      10381           0.0000000000
     56059     10581  TIP3      H2             12.5315823721      -20.4549913816      -22.1915277297  TIP3      10381           0.0000000000
     56060     10582  TIP3      OH2            15.0957357295      -19.5641144290      -23.7624677699  TIP3      10382           0.0000000000
     56061     10582  TIP3      H1             15.7922157931      -20.1133214630      -24.1673221469  TIP3      10382           0.0000000000
     56062     10582  TIP3      H2             15.5666722169      -18.7083177446      -23.6148821367  TIP3      10382           0.0000000000
     56063     10583  TIP3      OH2             0.6379117770      -20.2224334765      -24.2698709191  TIP3      10383           0.0000000000
     56064     10583  TIP3      H1             -0.1585970877      -20.4421768422      -24.7710737513  TIP3      10383           0.0000000000
     56065     10583  TIP3      H2              1.1271655673      -21.0681387869      -24.2709365460  TIP3      10383           0.0000000000
     56066     10584  TIP3      OH2            -0.5733533556      -20.4745182538      -28.5096199792  TIP3      10384           0.0000000000
     56067     10584  TIP3      H1             -0.0762834628      -19.8259254185      -29.0426623588  TIP3      10384           0.0000000000
     56068     10584  TIP3      H2             -1.1355949724      -19.9016673598      -27.9722610044  TIP3      10384           0.0000000000
     56069     10585  TIP3      OH2             5.1677852496      -20.4771561697      -24.4191555779  TIP3      10385           0.0000000000
     56070     10585  TIP3      H1              5.9523367891      -19.8983516365      -24.5129659152  TIP3      10385           0.0000000000
     56071     10585  TIP3      H2              5.0656454081      -20.4775885615      -23.4658207070  TIP3      10385           0.0000000000
     56072     10586  TIP3      OH2            10.8349696086      -20.2709341281      -22.7867095830  TIP3      10386           0.0000000000
     56073     10586  TIP3      H1             10.7885357225      -20.1620526726      -23.7377960594  TIP3      10386           0.0000000000
     56074     10586  TIP3      H2             10.4470721329      -21.1695708169      -22.6691595515  TIP3      10386           0.0000000000
     56075     10587  TIP3      OH2            12.1162911103      -20.2615745346      -27.1557211438  TIP3      10387           0.0000000000
     56076     10587  TIP3      H1             11.3675734830      -19.6596987795      -27.2824989455  TIP3      10387           0.0000000000
     56077     10587  TIP3      H2             11.6672579728      -21.1017976919      -26.8972944791  TIP3      10387           0.0000000000
     56078     10588  TIP3      OH2            -0.6552536994       -4.5244279194      -27.4760921177  TIP3      10388           0.0000000000
     56079     10588  TIP3      H1             -1.3119072327       -4.5384103848      -28.1977492848  TIP3      10388           0.0000000000
     56080     10588  TIP3      H2             -0.6499692995       -3.5692162936      -27.3040996512  TIP3      10388           0.0000000000
     56081     10589  TIP3      OH2             1.2635807684      -18.5291100025      -29.9898140081  TIP3      10389           0.0000000000
     56082     10589  TIP3      H1              1.7865207504      -19.1473565049      -30.5273821171  TIP3      10389           0.0000000000
     56083     10589  TIP3      H2              1.9348766728      -18.2118717754      -29.3538517026  TIP3      10389           0.0000000000
     56084     10590  TIP3      OH2             6.3877588364      -18.3066129458      -27.7055021897  TIP3      10390           0.0000000000
     56085     10590  TIP3      H1              6.5011927095      -18.8496659489      -26.9052973765  TIP3      10390           0.0000000000
     56086     10590  TIP3      H2              6.3054477511      -17.4725607620      -27.1853869732  TIP3      10390           0.0000000000
     56087     10591  TIP3      OH2             8.2185475718       -3.2174348293      -29.1528105710  TIP3      10391           0.0000000000
     56088     10591  TIP3      H1              9.1345393699       -2.9918691397      -29.3782592419  TIP3      10391           0.0000000000
     56089     10591  TIP3      H2              7.9989306625       -3.7405364050      -29.9520061336  TIP3      10391           0.0000000000
     56090     10592  TIP3      OH2            14.9063115605       -3.7123258491      -26.4331432140  TIP3      10392           0.0000000000
     56091     10592  TIP3      H1             14.7261343268       -4.5003077170      -26.9992470938  TIP3      10392           0.0000000000
     56092     10592  TIP3      H2             14.8248741047       -2.9857925690      -27.0818041354  TIP3      10392           0.0000000000
     56093     10593  TIP3      OH2             1.1371522414       -3.5377199674      -30.5465077324  TIP3      10393           0.0000000000
     56094     10593  TIP3      H1              0.8813612419       -3.2821962733      -29.6472616850  TIP3      10393           0.0000000000
     56095     10593  TIP3      H2              1.9198035160       -4.1031280353      -30.3884389294  TIP3      10393           0.0000000000
     56096     10594  TIP3      OH2            28.5839042363      -11.0747651319      -24.3746895234  TIP3      10394           0.0000000000
     56097     10594  TIP3      H1             28.6399891083      -10.0904760417      -24.4589483489  TIP3      10394           0.0000000000
     56098     10594  TIP3      H2             27.9639612907      -11.3005994937      -25.0940869426  TIP3      10394           0.0000000000
     56099     10595  TIP3      OH2            31.1690562514       -8.9330583355      -22.6162482501  TIP3      10395           0.0000000000
     56100     10595  TIP3      H1             30.7279211799       -9.6036426165      -22.0651327012  TIP3      10395           0.0000000000
     56101     10595  TIP3      H2             31.1464253876       -8.1828130312      -21.9940970833  TIP3      10395           0.0000000000
     56102     10596  TIP3      OH2            20.7915853102       -7.8559841248      -20.6204823533  TIP3      10396           0.0000000000
     56103     10596  TIP3      H1             20.4052528421       -8.4735320775      -21.2563151421  TIP3      10396           0.0000000000
     56104     10596  TIP3      H2             21.7288891651       -7.7954592234      -20.9058687241  TIP3      10396           0.0000000000
     56105     10597  TIP3      OH2            17.3782579679      -14.1709060202      -25.3144921109  TIP3      10397           0.0000000000
     56106     10597  TIP3      H1             16.9726172333      -13.2889077581      -25.3972177736  TIP3      10397           0.0000000000
     56107     10597  TIP3      H2             16.8083871489      -14.6872248264      -25.8962539577  TIP3      10397           0.0000000000
     56108     10598  TIP3      OH2            18.0940568499      -11.8983440948      -23.1931782451  TIP3      10398           0.0000000000
     56109     10598  TIP3      H1             18.3097299959      -12.7145524260      -22.6921664944  TIP3      10398           0.0000000000
     56110     10598  TIP3      H2             18.7965054034      -11.8495821544      -23.8504411359  TIP3      10398           0.0000000000
     56111     10599  TIP3      OH2            28.2303873716       -3.7184988549      -22.3152279739  TIP3      10399           0.0000000000
     56112     10599  TIP3      H1             28.9128508653       -4.3778259903      -22.6174937926  TIP3      10399           0.0000000000
     56113     10599  TIP3      H2             28.1002346221       -4.0646836360      -21.4349258202  TIP3      10399           0.0000000000
     56114     10600  TIP3      OH2            22.2036487944      -16.8542457818      -22.9411480632  TIP3      10400           0.0000000000
     56115     10600  TIP3      H1             22.1481045344      -15.9701388268      -23.3271558844  TIP3      10400           0.0000000000
     56116     10600  TIP3      H2             21.6750048873      -17.4091209639      -23.5331894322  TIP3      10400           0.0000000000
     56117     10601  TIP3      OH2            29.8757787946      -16.7966597567      -24.5390280777  TIP3      10401           0.0000000000
     56118     10601  TIP3      H1             30.4740866443      -17.1035075320      -23.8151497511  TIP3      10401           0.0000000000
     56119     10601  TIP3      H2             30.4504334190      -16.2101023312      -25.0414664854  TIP3      10401           0.0000000000
     56120     10602  TIP3      OH2            18.8054494780      -14.4338683528      -22.1665323918  TIP3      10402           0.0000000000
     56121     10602  TIP3      H1             19.3963124222      -15.0093627823      -21.6615179762  TIP3      10402           0.0000000000
     56122     10602  TIP3      H2             18.8457775743      -14.8066142432      -23.0563130336  TIP3      10402           0.0000000000
     56123     10603  TIP3      OH2            23.9985209490      -12.9042060314      -22.8938452337  TIP3      10403           0.0000000000
     56124     10603  TIP3      H1             24.5486553108      -13.5179639096      -22.3779095824  TIP3      10403           0.0000000000
     56125     10603  TIP3      H2             23.3741070135      -13.5600300695      -23.2907010200  TIP3      10403           0.0000000000
     56126     10604  TIP3      OH2            28.2395059764       -8.5124075985      -25.2557023450  TIP3      10404           0.0000000000
     56127     10604  TIP3      H1             28.0664674800       -8.7551964435      -26.1750557761  TIP3      10404           0.0000000000
     56128     10604  TIP3      H2             28.0144905250       -7.5520213605      -25.2422278740  TIP3      10404           0.0000000000
     56129     10605  TIP3      OH2            31.7273679943      -17.4533184497      -22.5328249369  TIP3      10405           0.0000000000
     56130     10605  TIP3      H1             31.4047112079      -18.1825255688      -21.9743162613  TIP3      10405           0.0000000000
     56131     10605  TIP3      H2             32.2968190264      -17.0003752680      -21.8986938785  TIP3      10405           0.0000000000
     56132     10606  TIP3      OH2            18.0572607194       -8.7184021390      -26.9933929998  TIP3      10406           0.0000000000
     56133     10606  TIP3      H1             17.8145279395       -8.3749768045      -27.8692119789  TIP3      10406           0.0000000000
     56134     10606  TIP3      H2             18.1520294959       -7.8914569052      -26.4791529345  TIP3      10406           0.0000000000
     56135     10607  TIP3      OH2            29.8850119583       -5.2626013233      -23.6663902118  TIP3      10407           0.0000000000
     56136     10607  TIP3      H1             30.3700179340       -5.9822391494      -24.1094485201  TIP3      10407           0.0000000000
     56137     10607  TIP3      H2             30.3801883038       -4.4723471515      -23.9830761791  TIP3      10407           0.0000000000
     56138     10608  TIP3      OH2            31.1685911901       -7.3612569686      -25.1420587341  TIP3      10408           0.0000000000
     56139     10608  TIP3      H1             30.8294260174       -8.0512445601      -25.7185976576  TIP3      10408           0.0000000000
     56140     10608  TIP3      H2             31.1894447684       -7.8144327819      -24.2772345380  TIP3      10408           0.0000000000
     56141     10609  TIP3      OH2            27.2638637576      -11.8142841498      -26.8015441391  TIP3      10409           0.0000000000
     56142     10609  TIP3      H1             26.5583119259      -11.2844375076      -27.2180963921  TIP3      10409           0.0000000000
     56143     10609  TIP3      H2             27.9385873485      -11.7701370947      -27.5113955847  TIP3      10409           0.0000000000
     56144     10610  TIP3      OH2            27.3369503431      -13.2815847973      -29.8564382752  TIP3      10410           0.0000000000
     56145     10610  TIP3      H1             28.0338864394      -13.3051473412      -29.1882461080  TIP3      10410           0.0000000000
     56146     10610  TIP3      H2             27.6466136080      -14.0022078257      -30.4220686286  TIP3      10410           0.0000000000
     56147     10611  TIP3      OH2            30.7687825171      -11.6631811247      -25.9173693411  TIP3      10411           0.0000000000
     56148     10611  TIP3      H1             29.9831369000      -11.3830373326      -25.3818036132  TIP3      10411           0.0000000000
     56149     10611  TIP3      H2             31.1174340920      -12.3505976135      -25.3395760537  TIP3      10411           0.0000000000
     56150     10612  TIP3      OH2            22.3615014157      -10.9581009444      -24.0323310335  TIP3      10412           0.0000000000
     56151     10612  TIP3      H1             21.9739212488      -11.3721623029      -24.8370492886  TIP3      10412           0.0000000000
     56152     10612  TIP3      H2             22.9039247354      -11.6959035974      -23.6833893581  TIP3      10412           0.0000000000
     56153     10613  TIP3      OH2            23.5819242622       -7.8456474350      -21.2414862405  TIP3      10413           0.0000000000
     56154     10613  TIP3      H1             23.6449550171       -8.0294291365      -22.1923953309  TIP3      10413           0.0000000000
     56155     10613  TIP3      H2             24.4941098810       -7.8009375290      -20.9466634550  TIP3      10413           0.0000000000
     56156     10614  TIP3      OH2            29.5920149392      -12.4355059256      -28.2486978418  TIP3      10414           0.0000000000
     56157     10614  TIP3      H1             30.1413379324      -12.2374276757      -27.4658024021  TIP3      10414           0.0000000000
     56158     10614  TIP3      H2             30.0091383256      -11.9431361265      -28.9962578896  TIP3      10414           0.0000000000
     56159     10615  TIP3      OH2            27.3004032854       -5.7146264179      -24.8098181672  TIP3      10415           0.0000000000
     56160     10615  TIP3      H1             27.7249871939       -5.4177524642      -23.9886349388  TIP3      10415           0.0000000000
     56161     10615  TIP3      H2             26.7075069063       -4.9806565770      -25.0093432877  TIP3      10415           0.0000000000
     56162     10616  TIP3      OH2            33.3200858817      -20.7153187835      -28.3656482350  TIP3      10416           0.0000000000
     56163     10616  TIP3      H1             32.3705254278      -20.6010808202      -28.1238137089  TIP3      10416           0.0000000000
     56164     10616  TIP3      H2             33.5152311220      -19.8731249459      -28.8115107858  TIP3      10416           0.0000000000
     56165     10617  TIP3      OH2            21.2803327611      -11.9632316587      -26.3999866190  TIP3      10417           0.0000000000
     56166     10617  TIP3      H1             20.9998498214      -11.1790055559      -26.9157540360  TIP3      10417           0.0000000000
     56167     10617  TIP3      H2             20.6307719491      -12.6300758135      -26.6350968930  TIP3      10417           0.0000000000
     56168     10618  TIP3      OH2            34.4265832981       -6.3559205522      -30.0218453128  TIP3      10418           0.0000000000
     56169     10618  TIP3      H1             34.5860686015       -5.4124458753      -29.8478749486  TIP3      10418           0.0000000000
     56170     10618  TIP3      H2             35.3549228970       -6.6634499597      -30.0309144387  TIP3      10418           0.0000000000
     56171     10619  TIP3      OH2            26.7694558384       -2.8039840832      -26.3702664913  TIP3      10419           0.0000000000
     56172     10619  TIP3      H1             26.6766420259       -2.8900811409      -27.3383056965  TIP3      10419           0.0000000000
     56173     10619  TIP3      H2             26.7712541416       -1.8399475640      -26.2314121397  TIP3      10419           0.0000000000
     56174     10620  TIP3      OH2            20.4508293325       -3.9527843887      -24.5777560475  TIP3      10420           0.0000000000
     56175     10620  TIP3      H1             20.5889292420       -4.3431431754      -23.6963046036  TIP3      10420           0.0000000000
     56176     10620  TIP3      H2             19.5894692145       -4.3558473791      -24.7949424489  TIP3      10420           0.0000000000
     56177     10621  TIP3      OH2            29.8341480412       -3.5899665756      -29.4196713417  TIP3      10421           0.0000000000
     56178     10621  TIP3      H1             30.2882757486       -4.3489982175      -29.8472549936  TIP3      10421           0.0000000000
     56179     10621  TIP3      H2             29.8723001691       -3.8483698718      -28.4714573260  TIP3      10421           0.0000000000
     56180     10622  TIP3      OH2            29.5363665167       -3.6668541239      -26.6257440876  TIP3      10422           0.0000000000
     56181     10622  TIP3      H1             28.5768815814       -3.5831873585      -26.4487319218  TIP3      10422           0.0000000000
     56182     10622  TIP3      H2             29.7741166746       -4.3843147017      -26.0159010457  TIP3      10422           0.0000000000
     56183     10623  TIP3      OH2            31.0685169373      -11.4424165094      -30.4328145242  TIP3      10423           0.0000000000
     56184     10623  TIP3      H1             31.0007374211      -11.5964355227      -31.4083494145  TIP3      10423           0.0000000000
     56185     10623  TIP3      H2             31.8977999108      -10.9447300226      -30.4279204269  TIP3      10423           0.0000000000
     56186     10624  TIP3      OH2            26.6310533093      -17.4848285715      -29.9458779778  TIP3      10424           0.0000000000
     56187     10624  TIP3      H1             26.3156386970      -17.5489903942      -29.0265136757  TIP3      10424           0.0000000000
     56188     10624  TIP3      H2             26.3233178250      -18.3618635415      -30.2532304926  TIP3      10424           0.0000000000
     56189     10625  TIP3      OH2            22.4052628473      -14.5865859836      -24.5361342283  TIP3      10425           0.0000000000
     56190     10625  TIP3      H1             21.4800576219      -14.8996238937      -24.6185605856  TIP3      10425           0.0000000000
     56191     10625  TIP3      H2             22.7760295097      -14.9515808687      -25.3606966211  TIP3      10425           0.0000000000
     56192     10626  TIP3      OH2            27.9555040809      -14.0752071719      -25.6586923670  TIP3      10426           0.0000000000
     56193     10626  TIP3      H1             27.5127350840      -13.3348203079      -26.1257428911  TIP3      10426           0.0000000000
     56194     10626  TIP3      H2             28.5878431065      -14.3500016554      -26.3485084974  TIP3      10426           0.0000000000
     56195     10627  TIP3      OH2            28.9526439687      -14.6205254108      -22.9514787292  TIP3      10427           0.0000000000
     56196     10627  TIP3      H1             28.6762172279      -14.1160890203      -23.7164055827  TIP3      10427           0.0000000000
     56197     10627  TIP3      H2             29.0705086927      -15.5172627003      -23.3272486336  TIP3      10427           0.0000000000
     56198     10628  TIP3      OH2            23.4417672324      -17.1205812773      -30.8307504202  TIP3      10428           0.0000000000
     56199     10628  TIP3      H1             22.9871008156      -17.5394390402      -30.0700624102  TIP3      10428           0.0000000000
     56200     10628  TIP3      H2             22.7316360107      -16.6876577656      -31.3196728493  TIP3      10428           0.0000000000
     56201     10629  TIP3      OH2            16.7106781966      -17.4057583173      -23.7679518350  TIP3      10429           0.0000000000
     56202     10629  TIP3      H1             17.3606220340      -17.3794416005      -23.0236478345  TIP3      10429           0.0000000000
     56203     10629  TIP3      H2             17.2078809788      -17.7742644894      -24.5089489523  TIP3      10429           0.0000000000
     56204     10630  TIP3      OH2            17.9935175595      -16.6932752563      -28.3522334755  TIP3      10430           0.0000000000
     56205     10630  TIP3      H1             18.5030385425      -16.0754567522      -28.9113677865  TIP3      10430           0.0000000000
     56206     10630  TIP3      H2             17.3124099195      -16.0747258893      -28.0158118906  TIP3      10430           0.0000000000
     56207     10631  TIP3      OH2            25.0035917087      -17.0675790029      -23.4933040350  TIP3      10431           0.0000000000
     56208     10631  TIP3      H1             24.0630747692      -17.1016635017      -23.2027361228  TIP3      10431           0.0000000000
     56209     10631  TIP3      H2             25.4347957867      -17.2622617719      -22.6513653673  TIP3      10431           0.0000000000
     56210     10632  TIP3      OH2            19.7969884555      -15.5248659102      -24.6946646929  TIP3      10432           0.0000000000
     56211     10632  TIP3      H1             18.8772551906      -15.4013072574      -25.0074980915  TIP3      10432           0.0000000000
     56212     10632  TIP3      H2             20.0820322178      -16.3920522661      -25.0260885066  TIP3      10432           0.0000000000
     56213     10633  TIP3      OH2            23.4056377490      -15.5076315454      -27.0104161305  TIP3      10433           0.0000000000
     56214     10633  TIP3      H1             24.3624738345      -15.4041818678      -26.8514197458  TIP3      10433           0.0000000000
     56215     10633  TIP3      H2             23.1754508104      -14.8123771828      -27.6524920902  TIP3      10433           0.0000000000
     56216     10634  TIP3      OH2            22.1210548120      -14.3207681273      -29.4119709052  TIP3      10434           0.0000000000
     56217     10634  TIP3      H1             21.5871844404      -14.7022805535      -30.1290290754  TIP3      10434           0.0000000000
     56218     10634  TIP3      H2             22.9382287542      -14.1139137087      -29.8899653584  TIP3      10434           0.0000000000
     56219     10635  TIP3      OH2            26.1845738215      -14.3826802930      -21.6304103189  TIP3      10435           0.0000000000
     56220     10635  TIP3      H1             26.8620651846      -14.8995683113      -22.0953134745  TIP3      10435           0.0000000000
     56221     10635  TIP3      H2             26.1344306759      -14.9006571567      -20.8149857176  TIP3      10435           0.0000000000
     56222     10636  TIP3      OH2            21.2610337400      -18.1740159006      -25.2172401104  TIP3      10436           0.0000000000
     56223     10636  TIP3      H1             20.9878996824      -19.0940284630      -25.1710507279  TIP3      10436           0.0000000000
     56224     10636  TIP3      H2             22.0762682180      -18.2311386920      -25.7287857676  TIP3      10436           0.0000000000
     56225     10637  TIP3      OH2            25.4855440462       -9.8175256505      -27.4608841586  TIP3      10437           0.0000000000
     56226     10637  TIP3      H1             24.6797164244      -10.2462594391      -27.8347600594  TIP3      10437           0.0000000000
     56227     10637  TIP3      H2             25.2247646927       -9.6571409352      -26.5334569668  TIP3      10437           0.0000000000
     56228     10638  TIP3      OH2            29.2971628177      -16.9836799538      -29.3135630194  TIP3      10438           0.0000000000
     56229     10638  TIP3      H1             28.3483063814      -16.8244355451      -29.4530121453  TIP3      10438           0.0000000000
     56230     10638  TIP3      H2             29.6322928357      -16.1293700408      -28.9745818447  TIP3      10438           0.0000000000
     56231     10639  TIP3      OH2            30.0298056101      -15.0466600112      -27.6964707087  TIP3      10439           0.0000000000
     56232     10639  TIP3      H1             30.9059666421      -15.2070453960      -27.2917957397  TIP3      10439           0.0000000000
     56233     10639  TIP3      H2             30.1231790937      -14.2357656941      -28.2197690366  TIP3      10439           0.0000000000
     56234     10640  TIP3      OH2            27.5705026043       -8.3167817465      -28.4610016662  TIP3      10440           0.0000000000
     56235     10640  TIP3      H1             27.2235609925       -7.4740918211      -28.1007653686  TIP3      10440           0.0000000000
     56236     10640  TIP3      H2             26.8380501472       -8.9335674432      -28.2526318928  TIP3      10440           0.0000000000
     56237     10641  TIP3      OH2            34.8746729451      -14.8980435091      -27.8698746007  TIP3      10441           0.0000000000
     56238     10641  TIP3      H1             34.4119751754      -15.2536943651      -28.6596148594  TIP3      10441           0.0000000000
     56239     10641  TIP3      H2             35.0540965219      -13.9980116148      -28.2287748907  TIP3      10441           0.0000000000
     56240     10642  TIP3      OH2            33.2155984838       -6.0786801086      -27.5155892229  TIP3      10442           0.0000000000
     56241     10642  TIP3      H1             32.8507256219       -6.9030391630      -27.1752458574  TIP3      10442           0.0000000000
     56242     10642  TIP3      H2             33.5661379196       -6.3069637577      -28.3927906533  TIP3      10442           0.0000000000
     56243     10643  TIP3      OH2            22.9513542929       -6.9538709973      -24.2875348399  TIP3      10443           0.0000000000
     56244     10643  TIP3      H1             23.4578128774       -6.1504889813      -24.4980266922  TIP3      10443           0.0000000000
     56245     10643  TIP3      H2             22.0773417153       -6.7217988348      -24.6294815692  TIP3      10443           0.0000000000
     56246     10644  TIP3      OH2            18.7234538312      -12.1011800193      -29.7321620199  TIP3      10444           0.0000000000
     56247     10644  TIP3      H1             19.3022310190      -11.4354730278      -29.3224231430  TIP3      10444           0.0000000000
     56248     10644  TIP3      H2             17.8328025818      -11.7875755462      -29.4854629813  TIP3      10444           0.0000000000
     56249     10645  TIP3      OH2            24.4186059611       -9.2858694882      -24.7488181018  TIP3      10445           0.0000000000
     56250     10645  TIP3      H1             24.0764191657       -8.3664299586      -24.6968139270  TIP3      10445           0.0000000000
     56251     10645  TIP3      H2             23.6336709046       -9.7582928256      -24.3967869224  TIP3      10445           0.0000000000
     56252     10646  TIP3      OH2            23.0498104304       -4.2653924094      -25.2906662987  TIP3      10446           0.0000000000
     56253     10646  TIP3      H1             22.0860960965       -4.1637543459      -25.1299225533  TIP3      10446           0.0000000000
     56254     10646  TIP3      H2             23.4200596169       -3.4682876206      -24.8709893674  TIP3      10446           0.0000000000
     56255     10647  TIP3      OH2            30.6667521379       -7.9924931216      -29.6691589285  TIP3      10447           0.0000000000
     56256     10647  TIP3      H1             30.9704107800       -8.4680516582      -28.8745331150  TIP3      10447           0.0000000000
     56257     10647  TIP3      H2             29.7184801018       -8.1987139755      -29.5899098116  TIP3      10447           0.0000000000
     56258     10648  TIP3      OH2            35.1474590897       -3.6654665884      -29.3928004308  TIP3      10448           0.0000000000
     56259     10648  TIP3      H1             35.8201337820       -3.0019648563      -29.6352695225  TIP3      10448           0.0000000000
     56260     10648  TIP3      H2             34.4262805597       -3.0532799395      -29.1298343571  TIP3      10448           0.0000000000
     56261     10649  TIP3      OH2            31.4726759568       -9.4130701617      -27.4572530397  TIP3      10449           0.0000000000
     56262     10649  TIP3      H1             31.2045222627      -10.1464987552      -26.8744250722  TIP3      10449           0.0000000000
     56263     10649  TIP3      H2             32.4102392633       -9.3046845108      -27.2396886185  TIP3      10449           0.0000000000
     56264     10650  TIP3      OH2            24.8134755429       -6.9452791527      -31.1712990933  TIP3      10450           0.0000000000
     56265     10650  TIP3      H1             24.9092571591       -7.7081254770      -31.7644764413  TIP3      10450           0.0000000000
     56266     10650  TIP3      H2             24.3677868306       -7.3754254805      -30.4091747592  TIP3      10450           0.0000000000
     56267     10651  TIP3      OH2            23.5823541082       -7.4182100321      -28.7184880827  TIP3      10451           0.0000000000
     56268     10651  TIP3      H1             23.8543926392       -7.9316644775      -27.9492133635  TIP3      10451           0.0000000000
     56269     10651  TIP3      H2             23.6759062114       -6.4915733765      -28.3966804868  TIP3      10451           0.0000000000
     56270     10652  TIP3      OH2            20.1237929962      -10.1714373054      -28.2404000239  TIP3      10452           0.0000000000
     56271     10652  TIP3      H1             19.4178501180       -9.7779871612      -27.6878021082  TIP3      10452           0.0000000000
     56272     10652  TIP3      H2             20.6306850856       -9.3912895286      -28.5300716830  TIP3      10452           0.0000000000
     56273     10653  TIP3      OH2            28.6849794642      -17.9075806024      -26.8343752462  TIP3      10453           0.0000000000
     56274     10653  TIP3      H1             28.9293446738      -17.4537690073      -27.6617482474  TIP3      10453           0.0000000000
     56275     10653  TIP3      H2             29.2724227831      -17.4736888480      -26.1989538468  TIP3      10453           0.0000000000
     56276     10654  TIP3      OH2            26.3872258615       -5.7569629993      -28.0272476210  TIP3      10454           0.0000000000
     56277     10654  TIP3      H1             25.5699787901       -5.2224643003      -27.9524616818  TIP3      10454           0.0000000000
     56278     10654  TIP3      H2             26.9276342234       -5.2042020268      -28.6101024780  TIP3      10454           0.0000000000
     56279     10655  TIP3      OH2            25.9200192329      -16.1380917675      -26.0115667409  TIP3      10455           0.0000000000
     56280     10655  TIP3      H1             26.7217397802      -15.5910248339      -25.9425872379  TIP3      10455           0.0000000000
     56281     10655  TIP3      H2             25.6551213349      -16.3123743754      -25.0864127942  TIP3      10455           0.0000000000
     56282     10656  TIP3      OH2            26.7855434416      -19.0987887843      -25.1446927807  TIP3      10456           0.0000000000
     56283     10656  TIP3      H1             26.4845588068      -18.4610983022      -24.4757776325  TIP3      10456           0.0000000000
     56284     10656  TIP3      H2             27.4852829565      -18.5602606980      -25.5802375483  TIP3      10456           0.0000000000
     56285     10657  TIP3      OH2            23.7960986585       -4.7216629157      -27.9922903645  TIP3      10457           0.0000000000
     56286     10657  TIP3      H1             23.8761501144       -3.9054210829      -28.5458872947  TIP3      10457           0.0000000000
     56287     10657  TIP3      H2             23.5173622612       -4.3533533738      -27.1236968526  TIP3      10457           0.0000000000
     56288     10658  TIP3      OH2            22.4389893058      -17.9773838102      -28.4382502506  TIP3      10458           0.0000000000
     56289     10658  TIP3      H1             22.3856911715      -17.0918207775      -28.0295291453  TIP3      10458           0.0000000000
     56290     10658  TIP3      H2             23.3406855553      -18.2398193178      -28.1571735747  TIP3      10458           0.0000000000
     56291     10659  TIP3      OH2            31.3594070053      -13.5320560361      -22.1009727658  TIP3      10459           0.0000000000
     56292     10659  TIP3      H1             30.4346615954      -13.8563722127      -22.1663730024  TIP3      10459           0.0000000000
     56293     10659  TIP3      H2             31.6629561950      -14.1164391285      -21.3862053657  TIP3      10459           0.0000000000
     56294     10660  TIP3      OH2            20.6691070421       -7.5626190650      -29.3754120925  TIP3      10460           0.0000000000
     56295     10660  TIP3      H1             21.3367786131       -6.9344024129      -29.0620975786  TIP3      10460           0.0000000000
     56296     10660  TIP3      H2             21.1895255933       -8.0248771996      -30.0627498988  TIP3      10460           0.0000000000
     56297     10661  TIP3      OH2            19.0127199161      -14.8863523460      -30.2261315232  TIP3      10461           0.0000000000
     56298     10661  TIP3      H1             19.0338374995      -13.9300002901      -30.0175685135  TIP3      10461           0.0000000000
     56299     10661  TIP3      H2             18.1213552034      -15.0573389867      -30.5380129177  TIP3      10461           0.0000000000
     56300     10662  TIP3      OH2            19.8860338733      -20.1508042664      -21.4858620321  TIP3      10462           0.0000000000
     56301     10662  TIP3      H1             19.6428080369      -19.9761091084      -22.4167076493  TIP3      10462           0.0000000000
     56302     10662  TIP3      H2             19.4221796440      -20.9395867148      -21.2481541618  TIP3      10462           0.0000000000
     56303     10663  TIP3      OH2            18.7895408409       -6.1912636568      -25.3346745769  TIP3      10463           0.0000000000
     56304     10663  TIP3      H1             17.9341239154       -5.7491351189      -25.4013385271  TIP3      10463           0.0000000000
     56305     10663  TIP3      H2             19.2589983675       -5.7439866296      -26.0547870746  TIP3      10463           0.0000000000
     56306     10664  TIP3      OH2            26.8061530958       -5.0945196374      -31.0488216307  TIP3      10464           0.0000000000
     56307     10664  TIP3      H1             26.1131458751       -5.7540392936      -30.8224854802  TIP3      10464           0.0000000000
     56308     10664  TIP3      H2             27.5241871903       -5.6930047094      -31.2974643985  TIP3      10464           0.0000000000
     56309     10665  TIP3      OH2            31.3641641142       -5.3495961557      -30.8620355033  TIP3      10465           0.0000000000
     56310     10665  TIP3      H1             31.6588808910       -6.1265583592      -30.3593750251  TIP3      10465           0.0000000000
     56311     10665  TIP3      H2             32.1261102855       -5.1255193227      -31.4151939976  TIP3      10465           0.0000000000
     56312     10666  TIP3      OH2            22.2526440903       -9.4055067021      -31.0460620853  TIP3      10466           0.0000000000
     56313     10666  TIP3      H1             22.3854812160      -10.1707045324      -30.4665554324  TIP3      10466           0.0000000000
     56314     10666  TIP3      H2             23.0005395704       -9.5282225092      -31.6632497842  TIP3      10466           0.0000000000
     56315     10667  TIP3      OH2            27.6818711501       -8.3007388618      -31.2667792262  TIP3      10467           0.0000000000
     56316     10667  TIP3      H1             27.4104436012       -8.2195350716      -30.3388953108  TIP3      10467           0.0000000000
     56317     10667  TIP3      H2             27.4922634187       -9.2580468788      -31.4121634255  TIP3      10467           0.0000000000
     56318     10668  TIP3      OH2            23.4706211488      -11.3947624339      -28.6192870399  TIP3      10468           0.0000000000
     56319     10668  TIP3      H1             22.9550511794      -11.9269016182      -27.9915664247  TIP3      10468           0.0000000000
     56320     10668  TIP3      H2             23.7543985282      -12.0710242253      -29.2754075941  TIP3      10468           0.0000000000
     56321     10669  TIP3      OH2            24.5300627015      -13.1702744855      -30.4161111818  TIP3      10469           0.0000000000
     56322     10669  TIP3      H1             24.3770676192      -13.2568942307      -31.3789733336  TIP3      10469           0.0000000000
     56323     10669  TIP3      H2             25.5061452207      -13.1175897349      -30.3508553347  TIP3      10469           0.0000000000
     56324     10670  TIP3      OH2            33.8673200070      -10.8509766558      -30.9842362937  TIP3      10470           0.0000000000
     56325     10670  TIP3      H1             33.6681020923      -11.2253614229      -31.8670690641  TIP3      10470           0.0000000000
     56326     10670  TIP3      H2             33.9478352637       -9.8898572791      -31.1981081405  TIP3      10470           0.0000000000
     56327     10671  TIP3      OH2            24.3622924532       -2.4782165840      -29.3515905492  TIP3      10471           0.0000000000
     56328     10671  TIP3      H1             25.3288774889       -2.3847247164      -29.2703536330  TIP3      10471           0.0000000000
     56329     10671  TIP3      H2             24.2202486840       -1.8723617228      -30.0891739096  TIP3      10471           0.0000000000
     56330     10672  TIP3      OH2            17.9122402545       -7.8969445723      -29.8679749527  TIP3      10472           0.0000000000
     56331     10672  TIP3      H1             18.8795367216       -7.8013385165      -29.6901050175  TIP3      10472           0.0000000000
     56332     10672  TIP3      H2             17.9618344506       -8.5383294090      -30.6163710765  TIP3      10472           0.0000000000
     56333     10673  TIP3      OH2            16.7679580794       -2.5357895157      -24.9285226052  TIP3      10473           0.0000000000
     56334     10673  TIP3      H1             15.9982704786       -2.9831530603      -25.3556044488  TIP3      10473           0.0000000000
     56335     10673  TIP3      H2             16.9394019179       -3.1699273837      -24.1936157944  TIP3      10473           0.0000000000
     56336     10674  TIP3      OH2            17.5236551703       -4.3730977750      -23.0773676443  TIP3      10474           0.0000000000
     56337     10674  TIP3      H1             17.1840552735       -5.2400740825      -22.8418543298  TIP3      10474           0.0000000000
     56338     10674  TIP3      H2             17.7335897839       -4.0439700173      -22.1766425564  TIP3      10474           0.0000000000
     56339     10675  TIP3      OH2            34.3500304263       -9.9818856484      -27.0279238094  TIP3      10475           0.0000000000
     56340     10675  TIP3      H1             35.1975868830       -9.5118176153      -26.8950581129  TIP3      10475           0.0000000000
     56341     10675  TIP3      H2             34.4427545653      -10.6156171060      -26.3028577893  TIP3      10475           0.0000000000
     56342     10676  TIP3      OH2            34.7591624948      -11.8686143054      -25.1174466834  TIP3      10476           0.0000000000
     56343     10676  TIP3      H1             34.0880533308      -12.3466275868      -24.5826138735  TIP3      10476           0.0000000000
     56344     10676  TIP3      H2             35.4357029952      -11.6897182433      -24.4099968011  TIP3      10476           0.0000000000
     56345     10677  TIP3      OH2            34.9578851547      -12.0659015638      -28.7011721998  TIP3      10477           0.0000000000
     56346     10677  TIP3      H1             34.5276320418      -11.6995749868      -29.5096514093  TIP3      10477           0.0000000000
     56347     10677  TIP3      H2             35.0381918226      -11.2495238849      -28.1686764070  TIP3      10477           0.0000000000
     56348     10678  TIP3      OH2            33.4253759642      -14.7962783025      -30.2523764766  TIP3      10478           0.0000000000
     56349     10678  TIP3      H1             33.5102466874      -14.1541281522      -30.9698999724  TIP3      10478           0.0000000000
     56350     10678  TIP3      H2             33.2417692315      -15.6256125386      -30.7441739623  TIP3      10478           0.0000000000
     56351     10679  TIP3      OH2            32.5910734306      -13.4334935498      -24.5835783237  TIP3      10479           0.0000000000
     56352     10679  TIP3      H1             32.3991151127      -14.3864905261      -24.5570381456  TIP3      10479           0.0000000000
     56353     10679  TIP3      H2             32.2247496703      -13.2132744177      -23.6896508930  TIP3      10479           0.0000000000
     56354     10680  TIP3      OH2            32.6619450110      -17.3347779164      -31.1156043816  TIP3      10480           0.0000000000
     56355     10680  TIP3      H1             33.2522608359      -17.7768230335      -30.4809039844  TIP3      10480           0.0000000000
     56356     10680  TIP3      H2             31.7953728039      -17.7483143588      -30.9692154096  TIP3      10480           0.0000000000
     56357     10681  TIP3      OH2            32.2428672999      -15.7505523765      -26.1717283172  TIP3      10481           0.0000000000
     56358     10681  TIP3      H1             32.4902776572      -16.6996504890      -26.0231676513  TIP3      10481           0.0000000000
     56359     10681  TIP3      H2             33.0812959596      -15.4592471052      -26.5340525243  TIP3      10481           0.0000000000
     56360     10682  TIP3      OH2            32.8647491265      -18.4719006306      -26.0824058564  TIP3      10482           0.0000000000
     56361     10682  TIP3      H1             33.0769609160      -18.9430053551      -25.2554599598  TIP3      10482           0.0000000000
     56362     10682  TIP3      H2             32.3078185805      -19.1285177391      -26.5463443432  TIP3      10482           0.0000000000
     56363     10683  TIP3      OH2            18.5029143647      -17.7183555107      -21.6832128210  TIP3      10483           0.0000000000
     56364     10683  TIP3      H1             18.8152074074      -18.5271904133      -21.2368564680  TIP3      10483           0.0000000000
     56365     10683  TIP3      H2             18.8342031159      -17.0277421788      -21.0869804164  TIP3      10483           0.0000000000
     56366     10684  TIP3      OH2            34.7212742765      -18.4883901571      -29.5100146588  TIP3      10484           0.0000000000
     56367     10684  TIP3      H1             35.1143408501      -19.1895873240      -30.0755252955  TIP3      10484           0.0000000000
     56368     10684  TIP3      H2             35.4152529372      -17.8107598262      -29.5051253211  TIP3      10484           0.0000000000
     56369     10685  TIP3      OH2            17.0661504338      -18.4755374605      -26.4252058341  TIP3      10485           0.0000000000
     56370     10685  TIP3      H1             16.1215658872      -18.2680409848      -26.5621692008  TIP3      10485           0.0000000000
     56371     10685  TIP3      H2             17.4626861952      -17.9430426087      -27.1397672734  TIP3      10485           0.0000000000
     56372     10686  TIP3      OH2            31.7747105001       -3.4846450802      -24.4704008616  TIP3      10486           0.0000000000
     56373     10686  TIP3      H1             32.4531928823       -3.7827537577      -25.1046960743  TIP3      10486           0.0000000000
     56374     10686  TIP3      H2             32.3041686450       -2.9952482126      -23.8208485386  TIP3      10486           0.0000000000
     56375     10687  TIP3      OH2            18.9997456047       -3.7275693525      -20.8090621488  TIP3      10487           0.0000000000
     56376     10687  TIP3      H1             18.9334518352       -4.1214585121      -19.9347836725  TIP3      10487           0.0000000000
     56377     10687  TIP3      H2             19.8567210933       -4.0422659401      -21.1075964591  TIP3      10487           0.0000000000
     56378     10688  TIP3      OH2            32.3978621299      -20.7412641181      -21.9973781832  TIP3      10488           0.0000000000
     56379     10688  TIP3      H1             32.8850351256      -20.1509313815      -22.5998690058  TIP3      10488           0.0000000000
     56380     10688  TIP3      H2             31.4490649506      -20.5016195409      -22.1484907122  TIP3      10488           0.0000000000
     56381     10689  TIP3      OH2            34.0374716862      -19.5673287557      -23.6712470400  TIP3      10489           0.0000000000
     56382     10689  TIP3      H1             34.6359886508      -20.1389940068      -24.2051912642  TIP3      10489           0.0000000000
     56383     10689  TIP3      H2             34.4524642184      -18.6806052547      -23.7687033990  TIP3      10489           0.0000000000
     56384     10690  TIP3      OH2            19.5533806151      -19.9923496454      -24.1517685832  TIP3      10490           0.0000000000
     56385     10690  TIP3      H1             18.7888346948      -20.0642390689      -24.7312059259  TIP3      10490           0.0000000000
     56386     10690  TIP3      H2             20.1419491965      -20.7619405156      -24.1786036945  TIP3      10490           0.0000000000
     56387     10691  TIP3      OH2            18.3207112331      -20.4706840491      -28.4412730701  TIP3      10491           0.0000000000
     56388     10691  TIP3      H1             18.7688848206      -19.8425230548      -29.0496826327  TIP3      10491           0.0000000000
     56389     10691  TIP3      H2             17.6953121434      -19.8767531118      -28.0046652812  TIP3      10491           0.0000000000
     56390     10692  TIP3      OH2            24.0006710002      -20.3367269557      -24.4296387113  TIP3      10492           0.0000000000
     56391     10692  TIP3      H1             24.8819506881      -19.9378072986      -24.5049782339  TIP3      10492           0.0000000000
     56392     10692  TIP3      H2             23.9628269753      -20.4925470415      -23.4855575852  TIP3      10492           0.0000000000
     56393     10693  TIP3      OH2            29.7898937341      -20.3465834287      -22.8426294949  TIP3      10493           0.0000000000
     56394     10693  TIP3      H1             29.6141198471      -20.1681874981      -23.7652573632  TIP3      10493           0.0000000000
     56395     10693  TIP3      H2             29.2442185466      -21.1442543341      -22.6620764072  TIP3      10493           0.0000000000
     56396     10694  TIP3      OH2            30.9730812015      -20.2591279939      -27.1533151527  TIP3      10494           0.0000000000
     56397     10694  TIP3      H1             30.2209289811      -19.6609208646      -27.2823411037  TIP3      10494           0.0000000000
     56398     10694  TIP3      H2             30.5280148900      -21.1024958712      -26.8957727924  TIP3      10494           0.0000000000
     56399     10695  TIP3      OH2            18.2052337614       -4.5190033487      -27.4753136439  TIP3      10495           0.0000000000
     56400     10695  TIP3      H1             17.5481655207       -4.5614347053      -28.1976997891  TIP3      10495           0.0000000000
     56401     10695  TIP3      H2             18.1860907175       -3.5659442512      -27.3180679633  TIP3      10495           0.0000000000
     56402     10696  TIP3      OH2            20.1127553558      -18.5316096379      -29.9992417457  TIP3      10496           0.0000000000
     56403     10696  TIP3      H1             20.6463235323      -19.1493352367      -30.5252334719  TIP3      10496           0.0000000000
     56404     10696  TIP3      H2             20.7781844548      -18.2089862218      -29.3631109778  TIP3      10496           0.0000000000
     56405     10697  TIP3      OH2            25.1309923517      -18.2830890564      -27.5889205105  TIP3      10497           0.0000000000
     56406     10697  TIP3      H1             25.3974035201      -18.8679238243      -26.8639182149  TIP3      10497           0.0000000000
     56407     10697  TIP3      H2             25.2117608054      -17.4192965529      -27.1320279918  TIP3      10497           0.0000000000
     56408     10698  TIP3      OH2            27.0723192937       -3.2124328878      -29.1453244286  TIP3      10498           0.0000000000
     56409     10698  TIP3      H1             27.9926978787       -2.9911078548      -29.3699683360  TIP3      10498           0.0000000000
     56410     10698  TIP3      H2             26.8548484348       -3.7369705508      -29.9469017738  TIP3      10498           0.0000000000
     56411     10699  TIP3      OH2            33.7719061795       -3.7035899338      -26.4410967490  TIP3      10499           0.0000000000
     56412     10699  TIP3      H1             33.5856568451       -4.4918759560      -27.0083254417  TIP3      10499           0.0000000000
     56413     10699  TIP3      H2             33.6953591666       -2.9723638929      -27.0850384501  TIP3      10499           0.0000000000
     56414     10700  TIP3      OH2            19.9953164265       -3.5439181272      -30.5474348036  TIP3      10500           0.0000000000
     56415     10700  TIP3      H1             19.7310464948       -3.2963332927      -29.6538975585  TIP3      10500           0.0000000000
     56416     10700  TIP3      H2             20.7790643956       -4.1043618323      -30.3877046481  TIP3      10500           0.0000000000
     56417     10701  TIP3      OH2            36.1957199087      -14.2066276675      -25.3496949915  TIP3      10501           0.0000000000
     56418     10701  TIP3      H1             35.8628473978      -13.2935774807      -25.3936638952  TIP3      10501           0.0000000000
     56419     10701  TIP3      H2             35.6236601852      -14.7093559523      -25.9269245401  TIP3      10501           0.0000000000
     56420     10702  TIP3      OH2            36.9101860741      -11.9168686800      -23.2446345161  TIP3      10502           0.0000000000
     56421     10702  TIP3      H1             37.1686343171      -12.7031934358      -22.7101378032  TIP3      10502           0.0000000000
     56422     10702  TIP3      H2             37.6884695700      -11.8341437651      -23.8146481687  TIP3      10502           0.0000000000
     56423     10703  TIP3      OH2            37.4788043439      -14.4421223404      -22.2297801611  TIP3      10503           0.0000000000
     56424     10703  TIP3      H1             38.1828280041      -14.9258684736      -21.7113178709  TIP3      10503           0.0000000000
     56425     10703  TIP3      H2             37.7308572333      -14.7724349799      -23.0949199668  TIP3      10503           0.0000000000
     56426     10704  TIP3      OH2            39.3246741229      -15.8198277549      -21.2461783192  TIP3      10504           0.0000000000
     56427     10704  TIP3      H1             39.8958546860      -15.4980690169      -20.5331893894  TIP3      10504           0.0000000000
     56428     10704  TIP3      H2             39.8451207724      -16.5952371947      -21.4808680599  TIP3      10504           0.0000000000
     56429     10705  TIP3      OH2            36.9307142105       -8.7328131250      -26.9853544600  TIP3      10505           0.0000000000
     56430     10705  TIP3      H1             36.6745974542       -8.3616220972      -27.8438718855  TIP3      10505           0.0000000000
     56431     10705  TIP3      H2             37.0350482563       -7.9062861625      -26.4634941648  TIP3      10505           0.0000000000
     56432     10706  TIP3      OH2            36.0290724097       -6.6946559099      -20.7853397759  TIP3      10506           0.0000000000
     56433     10706  TIP3      H1             36.9351041113       -7.0362207748      -20.6490107339  TIP3      10506           0.0000000000
     56434     10706  TIP3      H2             35.9011210225       -6.0109954133      -20.1310021581  TIP3      10506           0.0000000000
     56435     10707  TIP3      OH2            39.2136252978       -4.4002413255      -24.4970819589  TIP3      10507           0.0000000000
     56436     10707  TIP3      H1             39.2445228935       -4.5898266928      -23.5689315710  TIP3      10507           0.0000000000
     56437     10707  TIP3      H2             38.2674018393       -4.4979821695      -24.7365948475  TIP3      10507           0.0000000000
     56438     10708  TIP3      OH2            35.5938840404      -17.4741367385      -23.7028627420  TIP3      10508           0.0000000000
     56439     10708  TIP3      H1             36.3420499404      -17.3070423474      -23.1236431347  TIP3      10508           0.0000000000
     56440     10708  TIP3      H2             36.0380465341      -17.7485495971      -24.5225077603  TIP3      10508           0.0000000000
     56441     10709  TIP3      OH2            36.8104093457      -16.6971258620      -28.3672147696  TIP3      10509           0.0000000000
     56442     10709  TIP3      H1             37.3406540774      -16.0913457803      -28.9225270478  TIP3      10509           0.0000000000
     56443     10709  TIP3      H2             36.1459056688      -16.0737984766      -28.0230839019  TIP3      10509           0.0000000000
     56444     10710  TIP3      OH2            38.5567005035      -15.4238380553      -24.8348633657  TIP3      10510           0.0000000000
     56445     10710  TIP3      H1             37.6098505458      -15.4290812503      -25.0110096097  TIP3      10510           0.0000000000
     56446     10710  TIP3      H2             38.8938744868      -16.3429036516      -24.8430082974  TIP3      10510           0.0000000000
     56447     10711  TIP3      OH2            37.5490957838      -12.1125418683      -29.7143241841  TIP3      10511           0.0000000000
     56448     10711  TIP3      H1             38.1394871459      -11.4351782033      -29.3176983493  TIP3      10511           0.0000000000
     56449     10711  TIP3      H2             36.6566950172      -11.7774928786      -29.5180248310  TIP3      10511           0.0000000000
     56450     10712  TIP3      OH2            38.9678612864      -10.1788927354      -28.3333129807  TIP3      10512           0.0000000000
     56451     10712  TIP3      H1             38.3321818552       -9.8496677769      -27.6637307835  TIP3      10512           0.0000000000
     56452     10712  TIP3      H2             39.4449937256       -9.3657890627      -28.5025529916  TIP3      10512           0.0000000000
     56453     10713  TIP3      OH2            39.2678139427       -7.4940430916      -29.2767274652  TIP3      10513           0.0000000000
     56454     10713  TIP3      H1             39.9790074521       -6.8863149408      -29.0168855243  TIP3      10513           0.0000000000
     56455     10713  TIP3      H2             39.8375227165       -7.9552383005      -29.9273405330  TIP3      10513           0.0000000000
     56456     10714  TIP3      OH2            37.9043304515      -14.8677567639      -30.2327228924  TIP3      10514           0.0000000000
     56457     10714  TIP3      H1             37.8704806201      -13.9055022124      -30.0607808406  TIP3      10514           0.0000000000
     56458     10714  TIP3      H2             37.0244724138      -15.0626720566      -30.5645031776  TIP3      10514           0.0000000000
     56459     10715  TIP3      OH2            38.5876194263      -20.0732717518      -21.4634703503  TIP3      10515           0.0000000000
     56460     10715  TIP3      H1             38.5280148254      -20.0050682473      -22.4476175646  TIP3      10515           0.0000000000
     56461     10715  TIP3      H2             38.3215637219      -20.9454495150      -21.2653812762  TIP3      10515           0.0000000000
     56462     10716  TIP3      OH2            37.5601033745       -6.2392617832      -25.3763681633  TIP3      10516           0.0000000000
     56463     10716  TIP3      H1             36.7431534995       -5.7268490997      -25.4239822045  TIP3      10516           0.0000000000
     56464     10716  TIP3      H2             38.1306872436       -5.7706270242      -26.0079617996  TIP3      10516           0.0000000000
     56465     10717  TIP3      OH2            36.7629326008       -7.8540633113      -29.9220812193  TIP3      10517           0.0000000000
     56466     10717  TIP3      H1             37.7175272706       -7.7936565292      -29.6813689628  TIP3      10517           0.0000000000
     56467     10717  TIP3      H2             36.8112513236       -8.5559228321      -30.6088772589  TIP3      10517           0.0000000000
     56468     10718  TIP3      OH2            35.6024258164       -2.5284149880      -24.9319002757  TIP3      10518           0.0000000000
     56469     10718  TIP3      H1             34.8432922962       -2.9812207905      -25.3689782064  TIP3      10518           0.0000000000
     56470     10718  TIP3      H2             35.8126979784       -3.1681740283      -24.2315376390  TIP3      10518           0.0000000000
     56471     10719  TIP3      OH2            36.4652620667       -4.3869750416      -23.0425000500  TIP3      10519           0.0000000000
     56472     10719  TIP3      H1             36.0233753685       -5.2399561646      -22.8659849540  TIP3      10519           0.0000000000
     56473     10719  TIP3      H2             36.5524994794       -4.0326087362      -22.1408792670  TIP3      10519           0.0000000000
     56474     10720  TIP3      OH2            35.9293861991      -18.4515729169      -26.4140092398  TIP3      10520           0.0000000000
     56475     10720  TIP3      H1             34.9815927190      -18.3094431716      -26.5857720028  TIP3      10520           0.0000000000
     56476     10720  TIP3      H2             36.3321269419      -17.9756075493      -27.1594294109  TIP3      10520           0.0000000000
     56477     10721  TIP3      OH2            37.9580872942       -3.6163121682      -20.9188874062  TIP3      10521           0.0000000000
     56478     10721  TIP3      H1             37.7592943080       -3.9531679829      -20.0228264105  TIP3      10521           0.0000000000
     56479     10721  TIP3      H2             38.6406941421       -4.2235363556      -21.1596480592  TIP3      10521           0.0000000000
     56480     10722  TIP3      OH2            37.9807548860      -20.3294741775      -24.0169234376  TIP3      10522           0.0000000000
     56481     10722  TIP3      H1             37.4771423191      -20.3842979832      -24.8505643307  TIP3      10522           0.0000000000
     56482     10722  TIP3      H2             38.8230381887      -20.7608338691      -24.2553007847  TIP3      10522           0.0000000000
     56483     10723  TIP3      OH2            37.1252111648      -20.4481162190      -28.5040851731  TIP3      10523           0.0000000000
     56484     10723  TIP3      H1             37.6185553078      -19.8138009621      -29.0556214434  TIP3      10523           0.0000000000
     56485     10723  TIP3      H2             36.5498756940      -19.8690996678      -27.9803071635  TIP3      10523           0.0000000000
     56486     10724  TIP3      OH2            37.0353210346       -4.5359568765      -27.4970849191  TIP3      10524           0.0000000000
     56487     10724  TIP3      H1             36.3786116506       -4.5397527791      -28.2150245868  TIP3      10524           0.0000000000
     56488     10724  TIP3      H2             37.0422347679       -3.5831902994      -27.3337671370  TIP3      10524           0.0000000000
     56489     10725  TIP3      OH2            38.9890100057      -18.5175541112      -29.9497546044  TIP3      10525           0.0000000000
     56490     10725  TIP3      H1             39.5109195679      -19.1358576653      -30.4740731005  TIP3      10525           0.0000000000
     56491     10725  TIP3      H2             39.6489800301      -18.1513555094      -29.3483771588  TIP3      10525           0.0000000000
     56492     10726  TIP3      OH2            38.8312725862       -3.5999731672      -30.5199708658  TIP3      10526           0.0000000000
     56493     10726  TIP3      H1             38.5914855536       -3.2204505357      -29.6619288627  TIP3      10526           0.0000000000
     56494     10726  TIP3      H2             39.6564714068       -4.0612692296      -30.3513477565  TIP3      10526           0.0000000000
     56495     10727  TIP3      OH2           -27.9322256747        7.7896241074      -24.3919311471  TIP3      10527           0.0000000000
     56496     10727  TIP3      H1            -28.0045352018        8.7647090437      -24.4000707489  TIP3      10527           0.0000000000
     56497     10727  TIP3      H2            -28.6827407786        7.5247214954      -24.9572528401  TIP3      10527           0.0000000000
     56498     10728  TIP3      OH2           -25.2840554648        9.9800921798      -22.5342028050  TIP3      10528           0.0000000000
     56499     10728  TIP3      H1            -25.8433045361        9.2737411241      -22.1732596955  TIP3      10528           0.0000000000
     56500     10728  TIP3      H2            -25.4685877978       10.6968013184      -21.9152793288  TIP3      10528           0.0000000000
     56501     10729  TIP3      OH2           -35.8266690693       11.1073640291      -20.8749968074  TIP3      10529           0.0000000000
     56502     10729  TIP3      H1            -36.1003301463       10.2160638190      -21.1224533711  TIP3      10529           0.0000000000
     56503     10729  TIP3      H2            -34.8757505025       10.9858715791      -20.7275264898  TIP3      10529           0.0000000000
     56504     10730  TIP3      OH2           -39.0933885376        4.7614866817      -25.4494442837  TIP3      10530           0.0000000000
     56505     10730  TIP3      H1            -39.5965630216        5.5853750918      -25.3664114574  TIP3      10530           0.0000000000
     56506     10730  TIP3      H2            -39.7998849159        4.1632489567      -25.7567026810  TIP3      10530           0.0000000000
     56507     10731  TIP3      OH2           -38.4363364044        7.0100601269      -23.1743971193  TIP3      10531           0.0000000000
     56508     10731  TIP3      H1            -38.2540169389        6.1621661735      -22.7905305902  TIP3      10531           0.0000000000
     56509     10731  TIP3      H2            -37.7592789446        7.0737210156      -23.8621130071  TIP3      10531           0.0000000000
     56510     10732  TIP3      OH2           -28.3402424059       15.1315444094      -22.3710200551  TIP3      10532           0.0000000000
     56511     10732  TIP3      H1            -27.6611507424       14.4843706470      -22.6556536587  TIP3      10532           0.0000000000
     56512     10732  TIP3      H2            -28.4407845082       14.8829021376      -21.4538244653  TIP3      10532           0.0000000000
     56513     10733  TIP3      OH2           -27.7535135021        3.7640936707      -20.0898633348  TIP3      10533           0.0000000000
     56514     10733  TIP3      H1            -27.3425524432        2.8959502338      -20.1585970339  TIP3      10533           0.0000000000
     56515     10733  TIP3      H2            -27.5973318555        4.1241949813      -20.9894932623  TIP3      10533           0.0000000000
     56516     10734  TIP3      OH2           -34.4782251161        2.0191412549      -22.8421770132  TIP3      10534           0.0000000000
     56517     10734  TIP3      H1            -34.3211464421        2.8179166622      -23.3764742507  TIP3      10534           0.0000000000
     56518     10734  TIP3      H2            -34.8159838393        1.3910929467      -23.5190466664  TIP3      10534           0.0000000000
     56519     10735  TIP3      OH2           -26.6805773382        2.0240242775      -24.5170177149  TIP3      10535           0.0000000000
     56520     10735  TIP3      H1            -26.0543689508        1.7593552418      -23.8399551256  TIP3      10535           0.0000000000
     56521     10735  TIP3      H2            -26.1585635272        2.6520255054      -25.0380400183  TIP3      10535           0.0000000000
     56522     10736  TIP3      OH2           -32.7250789838        5.9371228108      -22.7958422649  TIP3      10536           0.0000000000
     56523     10736  TIP3      H1            -31.9811762099        5.4402962090      -22.4027798995  TIP3      10536           0.0000000000
     56524     10736  TIP3      H2            -33.1801260816        5.2538693014      -23.3041581178  TIP3      10536           0.0000000000
     56525     10737  TIP3      OH2           -28.2260934403       10.3692175450      -25.2799524240  TIP3      10537           0.0000000000
     56526     10737  TIP3      H1            -28.5385692912       10.0715742715      -26.1444675950  TIP3      10537           0.0000000000
     56527     10737  TIP3      H2            -28.5594627574       11.2948500199      -25.2290593701  TIP3      10537           0.0000000000
     56528     10738  TIP3      OH2           -38.4333175063       10.1812499593      -27.0298382765  TIP3      10538           0.0000000000
     56529     10738  TIP3      H1            -38.7873974213       10.5000607820      -27.8556905814  TIP3      10538           0.0000000000
     56530     10738  TIP3      H2            -38.4411220556       10.9724382041      -26.4668830021  TIP3      10538           0.0000000000
     56531     10739  TIP3      OH2           -26.5883183317       13.5758261282      -23.5758700005  TIP3      10539           0.0000000000
     56532     10739  TIP3      H1            -26.2210975442       12.8943540906      -24.1725048159  TIP3      10539           0.0000000000
     56533     10739  TIP3      H2            -26.2317328096       14.4035342411      -23.9835559381  TIP3      10539           0.0000000000
     56534     10740  TIP3      OH2           -25.3932086277       11.5004596179      -25.0825403072  TIP3      10540           0.0000000000
     56535     10740  TIP3      H1            -25.7307103496       10.8509304902      -25.7281468931  TIP3      10540           0.0000000000
     56536     10740  TIP3      H2            -25.4036508471       10.9842271360      -24.2675125938  TIP3      10540           0.0000000000
     56537     10741  TIP3      OH2           -29.2962384223        7.0062738676      -26.8355012292  TIP3      10541           0.0000000000
     56538     10741  TIP3      H1            -29.9922162084        7.5794502463      -27.2074652189  TIP3      10541           0.0000000000
     56539     10741  TIP3      H2            -28.5952279680        7.0970232984      -27.5066668368  TIP3      10541           0.0000000000
     56540     10742  TIP3      OH2           -29.2218126638        5.5697043861      -29.8677640285  TIP3      10542           0.0000000000
     56541     10742  TIP3      H1            -28.5358574863        5.5691973744      -29.1773302883  TIP3      10542           0.0000000000
     56542     10742  TIP3      H2            -28.8929899372        4.8413088748      -30.4002493833  TIP3      10542           0.0000000000
     56543     10743  TIP3      OH2           -25.8423882855        7.2378822241      -25.9484142360  TIP3      10543           0.0000000000
     56544     10743  TIP3      H1            -26.6077872193        7.4490897016      -25.3538947795  TIP3      10543           0.0000000000
     56545     10743  TIP3      H2            -25.3796886006        6.5392425660      -25.4633693919  TIP3      10543           0.0000000000
     56546     10744  TIP3      OH2           -34.2376511708        7.8937215725      -24.0279138919  TIP3      10544           0.0000000000
     56547     10744  TIP3      H1            -34.5543683624        7.4722341016      -24.8580320302  TIP3      10544           0.0000000000
     56548     10744  TIP3      H2            -33.6166721451        7.2148968851      -23.6558487146  TIP3      10544           0.0000000000
     56549     10745  TIP3      OH2           -26.9851428060        6.4152895506      -28.2832394077  TIP3      10545           0.0000000000
     56550     10745  TIP3      H1            -26.4253624373        6.5932223223      -27.4937169212  TIP3      10545           0.0000000000
     56551     10745  TIP3      H2            -26.5304961826        6.9114187526      -29.0011336968  TIP3      10545           0.0000000000
     56552     10746  TIP3      OH2           -29.2574169214       13.1343739727      -24.8089248889  TIP3      10546           0.0000000000
     56553     10746  TIP3      H1            -28.8523157712       13.4403484774      -23.9891448364  TIP3      10546           0.0000000000
     56554     10746  TIP3      H2            -29.8426143651       13.8705901755      -25.0288217499  TIP3      10546           0.0000000000
     56555     10747  TIP3      OH2           -23.2648355309       -1.8547732120      -28.3780116058  TIP3      10547           0.0000000000
     56556     10747  TIP3      H1            -24.2025335485       -1.7284137628      -28.1071467874  TIP3      10547           0.0000000000
     56557     10747  TIP3      H2            -23.0564490356       -1.0112664421      -28.8138786318  TIP3      10547           0.0000000000
     56558     10748  TIP3      OH2           -35.2805006160        6.8817504400      -26.4016663671  TIP3      10548           0.0000000000
     56559     10748  TIP3      H1            -35.5811090161        7.6675297544      -26.9073289765  TIP3      10548           0.0000000000
     56560     10748  TIP3      H2            -35.9365691403        6.2266619580      -26.6427073631  TIP3      10548           0.0000000000
     56561     10749  TIP3      OH2           -22.1484345204       12.5090691125      -30.0287549552  TIP3      10549           0.0000000000
     56562     10749  TIP3      H1            -21.9778032519       13.4493075056      -29.8507437303  TIP3      10549           0.0000000000
     56563     10749  TIP3      H2            -21.2268809182       12.1890171010      -30.0217241512  TIP3      10549           0.0000000000
     56564     10750  TIP3      OH2           -38.3423620347       11.9732634696      -19.9406544047  TIP3      10550           0.0000000000
     56565     10750  TIP3      H1            -38.0404409459       11.8416636828      -20.8547664838  TIP3      10550           0.0000000000
     56566     10750  TIP3      H2            -39.1745648968       12.4429739144      -19.8878711787  TIP3      10550           0.0000000000
     56567     10751  TIP3      OH2           -29.7898435502       16.0497767463      -26.3752984915  TIP3      10551           0.0000000000
     56568     10751  TIP3      H1            -29.8962026231       15.9763647710      -27.3395283188  TIP3      10551           0.0000000000
     56569     10751  TIP3      H2            -29.7828995155       17.0098630825      -26.2306720144  TIP3      10551           0.0000000000
     56570     10752  TIP3      OH2           -36.1502844783       14.9259280524      -24.5683228395  TIP3      10552           0.0000000000
     56571     10752  TIP3      H1            -35.9909227118       14.5032866302      -23.7132865909  TIP3      10552           0.0000000000
     56572     10752  TIP3      H2            -36.9884612856       14.5147105656      -24.8297315930  TIP3      10552           0.0000000000
     56573     10753  TIP3      OH2           -26.7242513370       15.2784404276      -29.4122433802  TIP3      10553           0.0000000000
     56574     10753  TIP3      H1            -26.2964605282       14.4947677376      -29.8201397230  TIP3      10553           0.0000000000
     56575     10753  TIP3      H2            -26.7201254261       15.0290946301      -28.4583884889  TIP3      10553           0.0000000000
     56576     10754  TIP3      OH2           -27.0271433140       15.1741828107      -26.6353571307  TIP3      10554           0.0000000000
     56577     10754  TIP3      H1            -27.9865891118       15.2957625468      -26.4572580563  TIP3      10554           0.0000000000
     56578     10754  TIP3      H2            -26.8055830437       14.4546392600      -26.0275216754  TIP3      10554           0.0000000000
     56579     10755  TIP3      OH2           -34.2782716857       -0.8395806550      -20.6931152287  TIP3      10555           0.0000000000
     56580     10755  TIP3      H1            -35.1652691412       -0.9954584253      -20.9859836864  TIP3      10555           0.0000000000
     56581     10755  TIP3      H2            -34.3245544446       -0.1048222837      -20.0884620452  TIP3      10555           0.0000000000
     56582     10756  TIP3      OH2           -25.5340956659        7.4370832776      -30.4525756641  TIP3      10556           0.0000000000
     56583     10756  TIP3      H1            -25.5542004624        7.2582099429      -31.4209935340  TIP3      10556           0.0000000000
     56584     10756  TIP3      H2            -24.6780118110        7.8899393262      -30.4033821673  TIP3      10556           0.0000000000
     56585     10757  TIP3      OH2           -29.9525134521        1.3732503613      -29.9546284252  TIP3      10557           0.0000000000
     56586     10757  TIP3      H1            -30.2483133785        1.3070996803      -29.0273201060  TIP3      10557           0.0000000000
     56587     10757  TIP3      H2            -30.2442736745        0.4856239557      -30.2445286821  TIP3      10557           0.0000000000
     56588     10758  TIP3      OH2           -34.1839754951        4.1880058013      -24.5110267083  TIP3      10558           0.0000000000
     56589     10758  TIP3      H1            -35.1104043590        3.9301680584      -24.6544233429  TIP3      10558           0.0000000000
     56590     10758  TIP3      H2            -33.7855432533        3.9186194525      -25.3673035480  TIP3      10558           0.0000000000
     56591     10759  TIP3      OH2           -28.6202976979        4.7151407818      -25.7092466329  TIP3      10559           0.0000000000
     56592     10759  TIP3      H1            -29.0396592827        5.5257632936      -26.0858856743  TIP3      10559           0.0000000000
     56593     10759  TIP3      H2            -27.9551828421        4.5506054343      -26.3941909607  TIP3      10559           0.0000000000
     56594     10760  TIP3      OH2           -27.6383919885        4.1491057450      -22.8870452262  TIP3      10560           0.0000000000
     56595     10760  TIP3      H1            -27.9116907017        4.7759926896      -23.5758764151  TIP3      10560           0.0000000000
     56596     10760  TIP3      H2            -27.5044920328        3.3481718489      -23.4125489158  TIP3      10560           0.0000000000
     56597     10761  TIP3      OH2           -33.1516676881        1.7042772909      -30.8243877305  TIP3      10561           0.0000000000
     56598     10761  TIP3      H1            -33.5955971582        1.3050801032      -30.0468110298  TIP3      10561           0.0000000000
     56599     10761  TIP3      H2            -33.8785172574        2.1549784332      -31.2789782358  TIP3      10561           0.0000000000
     56600     10762  TIP3      OH2           -39.7980008355        1.4037347639      -23.7835151012  TIP3      10562           0.0000000000
     56601     10762  TIP3      H1            -39.1397847454        1.4418666360      -23.0989275129  TIP3      10562           0.0000000000
     56602     10762  TIP3      H2            -39.3740461131        0.9812958323      -24.5445031220  TIP3      10562           0.0000000000
     56603     10763  TIP3      OH2           -38.5743057681        2.2010649322      -28.3385165949  TIP3      10563           0.0000000000
     56604     10763  TIP3      H1            -38.0489965067        2.8164144757      -28.9002174280  TIP3      10563           0.0000000000
     56605     10763  TIP3      H2            -39.2433874213        2.7841227573      -27.9676590610  TIP3      10563           0.0000000000
     56606     10764  TIP3      OH2           -31.5992992879        1.7442420374      -23.4955017524  TIP3      10564           0.0000000000
     56607     10764  TIP3      H1            -32.5367811861        1.7517531907      -23.2196407300  TIP3      10564           0.0000000000
     56608     10764  TIP3      H2            -31.1142403506        1.6137097929      -22.6680347749  TIP3      10564           0.0000000000
     56609     10765  TIP3      OH2           -36.7920940402        3.2415488829      -24.5606293116  TIP3      10565           0.0000000000
     56610     10765  TIP3      H1            -37.6271797861        3.4825196085      -25.0160234210  TIP3      10565           0.0000000000
     56611     10765  TIP3      H2            -36.5079347993        2.4320251259      -25.0293640002  TIP3      10565           0.0000000000
     56612     10766  TIP3      OH2           -33.1576741280        3.3705273923      -26.9650630270  TIP3      10566           0.0000000000
     56613     10766  TIP3      H1            -32.1939308754        3.4668173208      -26.8355904864  TIP3      10566           0.0000000000
     56614     10766  TIP3      H2            -33.3934944536        4.0344717764      -27.6379359824  TIP3      10566           0.0000000000
     56615     10767  TIP3      OH2           -27.1986300424        0.9932075842      -20.2121543466  TIP3      10567           0.0000000000
     56616     10767  TIP3      H1            -27.8911356802        1.0202030204      -19.5554423108  TIP3      10567           0.0000000000
     56617     10767  TIP3      H2            -27.6824518765        0.7300740138      -21.0188807527  TIP3      10567           0.0000000000
     56618     10768  TIP3      OH2           -34.4573794846        4.5321611467      -29.4082492521  TIP3      10568           0.0000000000
     56619     10768  TIP3      H1            -34.9763266935        4.1557617260      -30.1392406968  TIP3      10568           0.0000000000
     56620     10768  TIP3      H2            -33.6319036390        4.7464298030      -29.8694339635  TIP3      10568           0.0000000000
     56621     10769  TIP3      OH2           -30.4668740493        4.3638735929      -21.7163878803  TIP3      10569           0.0000000000
     56622     10769  TIP3      H1            -29.6877160471        3.9960175800      -22.1491079470  TIP3      10569           0.0000000000
     56623     10769  TIP3      H2            -30.3659250189        4.1052148949      -20.8051144701  TIP3      10569           0.0000000000
     56624     10770  TIP3      OH2           -35.2867217529        0.6881267468      -25.1678240249  TIP3      10570           0.0000000000
     56625     10770  TIP3      H1            -35.6039202653       -0.2324462010      -25.1804433607  TIP3      10570           0.0000000000
     56626     10770  TIP3      H2            -34.5179023704        0.6017502639      -25.7356907623  TIP3      10570           0.0000000000
     56627     10771  TIP3      OH2           -31.0911109701        9.0583259708      -27.4920876519  TIP3      10571           0.0000000000
     56628     10771  TIP3      H1            -31.8963509903        8.6004630305      -27.8252881838  TIP3      10571           0.0000000000
     56629     10771  TIP3      H2            -31.3141223635        9.1756014854      -26.5414010020  TIP3      10571           0.0000000000
     56630     10772  TIP3      OH2           -27.2684911037        1.8930469423      -29.3491164623  TIP3      10572           0.0000000000
     56631     10772  TIP3      H1            -28.2238829702        2.0371619861      -29.4269137043  TIP3      10572           0.0000000000
     56632     10772  TIP3      H2            -26.9268671710        2.7279406720      -28.9603446057  TIP3      10572           0.0000000000
     56633     10773  TIP3      OH2           -26.5215570967        3.7847638023      -27.6929551908  TIP3      10573           0.0000000000
     56634     10773  TIP3      H1            -25.6347437882        3.6588087399      -27.2993599179  TIP3      10573           0.0000000000
     56635     10773  TIP3      H2            -26.4269509278        4.6187585932      -28.1854138315  TIP3      10573           0.0000000000
     56636     10774  TIP3      OH2           -36.0650608845        8.3850114994      -21.7434224572  TIP3      10574           0.0000000000
     56637     10774  TIP3      H1            -35.2827171319        8.4333032141      -22.3246449507  TIP3      10574           0.0000000000
     56638     10774  TIP3      H2            -35.8499315833        7.6400950099      -21.1701850551  TIP3      10574           0.0000000000
     56639     10775  TIP3      OH2           -29.0013912433       10.5315016077      -28.4644132413  TIP3      10575           0.0000000000
     56640     10775  TIP3      H1            -29.3351220402       11.3774063907      -28.1043269307  TIP3      10575           0.0000000000
     56641     10775  TIP3      H2            -29.7319111550        9.9169926039      -28.2362741402  TIP3      10575           0.0000000000
     56642     10776  TIP3      OH2           -21.6257943111        3.9325193221      -27.9110219717  TIP3      10576           0.0000000000
     56643     10776  TIP3      H1            -22.1958895116        3.6517472934      -28.6519299806  TIP3      10576           0.0000000000
     56644     10776  TIP3      H2            -21.5488883549        4.8829123233      -28.1596560147  TIP3      10576           0.0000000000
     56645     10777  TIP3      OH2           -23.3401454792       12.7642690986      -27.4906772874  TIP3      10577           0.0000000000
     56646     10777  TIP3      H1            -23.7166058714       11.9319892632      -27.1830758605  TIP3      10577           0.0000000000
     56647     10777  TIP3      H2            -23.0162522734       12.5623579873      -28.3839084574  TIP3      10577           0.0000000000
     56648     10778  TIP3      OH2           -33.6136122957       11.8893412833      -24.3652276603  TIP3      10578           0.0000000000
     56649     10778  TIP3      H1            -33.1086293203       12.7102080115      -24.4660483443  TIP3      10578           0.0000000000
     56650     10778  TIP3      H2            -34.4961610869       12.1592172633      -24.6228844302  TIP3      10578           0.0000000000
     56651     10779  TIP3      OH2           -37.9116399107        6.7675036778      -29.7349469651  TIP3      10579           0.0000000000
     56652     10779  TIP3      H1            -37.2757434493        7.4065534756      -29.3490749174  TIP3      10579           0.0000000000
     56653     10779  TIP3      H2            -38.7525534205        7.1322197875      -29.4413427772  TIP3      10579           0.0000000000
     56654     10780  TIP3      OH2           -32.1936296155        9.5820196285      -24.8243343925  TIP3      10580           0.0000000000
     56655     10780  TIP3      H1            -32.4845298644       10.4991190706      -24.6330692815  TIP3      10580           0.0000000000
     56656     10780  TIP3      H2            -32.8903126475        9.1030440231      -24.3311541406  TIP3      10580           0.0000000000
     56657     10781  TIP3      OH2           -33.5288684335       14.5899573873      -25.2521940232  TIP3      10581           0.0000000000
     56658     10781  TIP3      H1            -34.4919024945       14.7272303661      -25.1536528328  TIP3      10581           0.0000000000
     56659     10781  TIP3      H2            -33.1547332631       15.4247368092      -24.9052046052  TIP3      10581           0.0000000000
     56660     10782  TIP3      OH2           -25.8810229201       10.8422614452      -29.6696754853  TIP3      10582           0.0000000000
     56661     10782  TIP3      H1            -25.5875695186       10.3663666764      -28.8656327719  TIP3      10582           0.0000000000
     56662     10782  TIP3      H2            -26.8344299108       10.6566146984      -29.5883985120  TIP3      10582           0.0000000000
     56663     10783  TIP3      OH2           -21.4286364210       15.1957729464      -29.4284114254  TIP3      10583           0.0000000000
     56664     10783  TIP3      H1            -20.7237063070       15.8503800551      -29.6048205026  TIP3      10583           0.0000000000
     56665     10783  TIP3      H2            -22.1338189269       15.8018784347      -29.1138458328  TIP3      10583           0.0000000000
     56666     10784  TIP3      OH2           -25.1080623107        9.4763831410      -27.4285554749  TIP3      10584           0.0000000000
     56667     10784  TIP3      H1            -25.3462712585        8.6899747040      -26.8936813202  TIP3      10584           0.0000000000
     56668     10784  TIP3      H2            -24.1539950454        9.5168098684      -27.2509596386  TIP3      10584           0.0000000000
     56669     10785  TIP3      OH2           -31.7740556014       11.9108531520      -31.1715696330  TIP3      10585           0.0000000000
     56670     10785  TIP3      H1            -31.6579286546       11.1463644407      -31.7582377558  TIP3      10585           0.0000000000
     56671     10785  TIP3      H2            -32.2027583665       11.4773138906      -30.4035749072  TIP3      10585           0.0000000000
     56672     10786  TIP3      OH2           -33.0090672383       11.4342020558      -28.7195677875  TIP3      10586           0.0000000000
     56673     10786  TIP3      H1            -32.7382497662       10.9268972312      -27.9438594864  TIP3      10586           0.0000000000
     56674     10786  TIP3      H2            -32.9205372291       12.3641553820      -28.4052606947  TIP3      10586           0.0000000000
     56675     10787  TIP3      OH2           -36.4888773226        8.6802530020      -28.2728932939  TIP3      10587           0.0000000000
     56676     10787  TIP3      H1            -37.1726302303        9.0676668505      -27.6807721558  TIP3      10587           0.0000000000
     56677     10787  TIP3      H2            -35.9467228722        9.4558737123      -28.5129603038  TIP3      10587           0.0000000000
     56678     10788  TIP3      OH2           -27.8831598029        0.9611801942      -26.8419498201  TIP3      10588           0.0000000000
     56679     10788  TIP3      H1            -27.6566708929        1.4133209582      -27.6790278374  TIP3      10588           0.0000000000
     56680     10788  TIP3      H2            -27.2882187376        1.3816250126      -26.2047078350  TIP3      10588           0.0000000000
     56681     10789  TIP3      OH2           -30.1841852393       13.1047761409      -28.0314103923  TIP3      10589           0.0000000000
     56682     10789  TIP3      H1            -30.9968707577       13.6442203243      -27.9549555647  TIP3      10589           0.0000000000
     56683     10789  TIP3      H2            -29.6459566707       13.6703433914      -28.6071259020  TIP3      10589           0.0000000000
     56684     10790  TIP3      OH2           -30.6306306571        2.6878779876      -26.0270252202  TIP3      10590           0.0000000000
     56685     10790  TIP3      H1            -29.8565908690        3.2812119473      -25.9476345490  TIP3      10590           0.0000000000
     56686     10790  TIP3      H2            -30.9218345970        2.5711454727      -25.1030173511  TIP3      10590           0.0000000000
     56687     10791  TIP3      OH2           -29.7780494400       -0.2451856536      -25.1611264759  TIP3      10591           0.0000000000
     56688     10791  TIP3      H1            -30.1172435170        0.3906604587      -24.5077060988  TIP3      10591           0.0000000000
     56689     10791  TIP3      H2            -29.0837148308        0.3073354565      -25.5838577556  TIP3      10591           0.0000000000
     56690     10792  TIP3      OH2           -32.7766342521       14.1407218734      -28.0103594425  TIP3      10592           0.0000000000
     56691     10792  TIP3      H1            -32.6688267127       14.9623952488      -28.5516690410  TIP3      10592           0.0000000000
     56692     10792  TIP3      H2            -33.0367848329       14.5045468124      -27.1390228814  TIP3      10592           0.0000000000
     56693     10793  TIP3      OH2           -34.1228956679        0.8547217630      -28.4152856402  TIP3      10593           0.0000000000
     56694     10793  TIP3      H1            -34.1808541467        1.7530506344      -28.0319786145  TIP3      10593           0.0000000000
     56695     10793  TIP3      H2            -33.2136837206        0.6140952865      -28.1515727872  TIP3      10593           0.0000000000
     56696     10794  TIP3      OH2           -35.8393919489       11.3179302268      -29.3659364261  TIP3      10594           0.0000000000
     56697     10794  TIP3      H1            -35.1762059382       11.9462399720      -29.0648602173  TIP3      10594           0.0000000000
     56698     10794  TIP3      H2            -35.3336506145       10.8456428213      -30.0569528254  TIP3      10594           0.0000000000
     56699     10795  TIP3      OH2           -37.5538807636        3.9724039768      -30.2071147175  TIP3      10595           0.0000000000
     56700     10795  TIP3      H1            -37.5391635048        4.9306558707      -30.0305884333  TIP3      10595           0.0000000000
     56701     10795  TIP3      H2            -38.4404040442        3.8107439003      -30.5390856535  TIP3      10595           0.0000000000
     56702     10796  TIP3      OH2           -37.7578668033       12.7205681680      -25.2829958980  TIP3      10596           0.0000000000
     56703     10796  TIP3      H1            -38.6167234491       13.1273997803      -25.4272684974  TIP3      10596           0.0000000000
     56704     10796  TIP3      H2            -37.2727554380       13.1295448670      -26.0209777258  TIP3      10596           0.0000000000
     56705     10797  TIP3      OH2           -29.7623499362       13.7468135533      -31.0525865138  TIP3      10597           0.0000000000
     56706     10797  TIP3      H1            -30.4590161876       13.0936183420      -30.8211303778  TIP3      10597           0.0000000000
     56707     10797  TIP3      H2            -29.0433053478       13.1483860213      -31.2967359053  TIP3      10597           0.0000000000
     56708     10798  TIP3      OH2           -25.1912757474       13.5306173060      -30.8708075728  TIP3      10598           0.0000000000
     56709     10798  TIP3      H1            -24.9226613795       12.7474084321      -30.3605906747  TIP3      10598           0.0000000000
     56710     10798  TIP3      H2            -24.4217289262       13.6985008451      -31.4249909467  TIP3      10598           0.0000000000
     56711     10799  TIP3      OH2           -34.3275317139        9.4445161917      -31.0435194413  TIP3      10599           0.0000000000
     56712     10799  TIP3      H1            -34.1780333946        8.6876448473      -30.4544510928  TIP3      10599           0.0000000000
     56713     10799  TIP3      H2            -33.5755244817        9.3335016015      -31.6587343678  TIP3      10599           0.0000000000
     56714     10800  TIP3      OH2           -28.8846700143       10.5402905408      -31.2689963229  TIP3      10600           0.0000000000
     56715     10800  TIP3      H1            -29.1566612608       10.6346226530      -30.3415943091  TIP3      10600           0.0000000000
     56716     10800  TIP3      H2            -29.0804970598        9.5893653495      -31.4121123487  TIP3      10600           0.0000000000
     56717     10801  TIP3      OH2           -33.1004894210        7.4463217286      -28.6227906003  TIP3      10601           0.0000000000
     56718     10801  TIP3      H1            -33.6087031242        6.9188633942      -27.9861053866  TIP3      10601           0.0000000000
     56719     10801  TIP3      H2            -32.8130821690        6.7725436000      -29.2770745403  TIP3      10601           0.0000000000
     56720     10802  TIP3      OH2           -32.0445079968        5.6523680602      -30.4251577838  TIP3      10602           0.0000000000
     56721     10802  TIP3      H1            -32.2042452511        5.6141444955      -31.3846963267  TIP3      10602           0.0000000000
     56722     10802  TIP3      H2            -31.0721392050        5.7517500520      -30.3398411282  TIP3      10602           0.0000000000
     56723     10803  TIP3      OH2           -22.7117850511        8.0086885978      -31.0060167494  TIP3      10603           0.0000000000
     56724     10803  TIP3      H1            -22.8998569280        7.6266076767      -31.8772032988  TIP3      10603           0.0000000000
     56725     10803  TIP3      H2            -22.6206839924        8.9707226662      -31.1929890887  TIP3      10603           0.0000000000
     56726     10804  TIP3      OH2           -32.1918965142       16.3907383425      -29.3524158775  TIP3      10604           0.0000000000
     56727     10804  TIP3      H1            -31.2282817250       16.5124408999      -29.2660900519  TIP3      10604           0.0000000000
     56728     10804  TIP3      H2            -32.3378570289       17.0151262443      -30.0718340528  TIP3      10604           0.0000000000
     56729     10805  TIP3      OH2           -38.2552176784       11.0790652472      -30.1686557434  TIP3      10605           0.0000000000
     56730     10805  TIP3      H1            -37.3755308866       11.0052217496      -29.7290543417  TIP3      10605           0.0000000000
     56731     10805  TIP3      H2            -38.3560966471       10.2352574002      -30.6490443337  TIP3      10605           0.0000000000
     56732     10806  TIP3      OH2            40.3107007664       16.5301801377      -25.0686758919  TIP3      10606           0.0000000000
     56733     10806  TIP3      H1             39.4999852805       16.1268685472      -25.4401380020  TIP3      10606           0.0000000000
     56734     10806  TIP3      H2             40.4081993703       15.8926943770      -24.3412253566  TIP3      10606           0.0000000000
     56735     10807  TIP3      OH2           -38.8581466913       14.4631000280      -22.9906139368  TIP3      10607           0.0000000000
     56736     10807  TIP3      H1            -39.2585353217       13.5975170457      -22.9241959555  TIP3      10607           0.0000000000
     56737     10807  TIP3      H2            -38.7182059238       14.8273080648      -22.0838896660  TIP3      10607           0.0000000000
     56738     10808  TIP3      OH2           -22.1811997415        8.9371240676      -27.0426250487  TIP3      10608           0.0000000000
     56739     10808  TIP3      H1            -21.3016286170        9.3132249074      -26.8805671468  TIP3      10608           0.0000000000
     56740     10808  TIP3      H2            -22.1830032011        8.2010472746      -26.3921183481  TIP3      10608           0.0000000000
     56741     10809  TIP3      OH2           -21.8449052411        7.0182334780      -25.1684845944  TIP3      10609           0.0000000000
     56742     10809  TIP3      H1            -22.5707036610        6.4656270608      -24.8045408065  TIP3      10609           0.0000000000
     56743     10809  TIP3      H2            -21.2237112584        7.1258392144      -24.4404373683  TIP3      10609           0.0000000000
     56744     10810  TIP3      OH2           -21.5156924673        6.8239275485      -28.7592785357  TIP3      10610           0.0000000000
     56745     10810  TIP3      H1            -22.0792038264        7.1603102978      -29.4894060591  TIP3      10610           0.0000000000
     56746     10810  TIP3      H2            -21.6171293287        7.5450014806      -28.1131918323  TIP3      10610           0.0000000000
     56747     10811  TIP3      OH2           -23.1347515335        4.0512985508      -30.2517344333  TIP3      10611           0.0000000000
     56748     10811  TIP3      H1            -23.0676161210        4.7166867838      -30.9467741591  TIP3      10611           0.0000000000
     56749     10811  TIP3      H2            -23.3267569883        3.2322669632      -30.7482006383  TIP3      10611           0.0000000000
     56750     10812  TIP3      OH2           -23.9604616015        5.4612530014      -24.5607618941  TIP3      10612           0.0000000000
     56751     10812  TIP3      H1            -24.1457522543        4.5163386973      -24.6686047141  TIP3      10612           0.0000000000
     56752     10812  TIP3      H2            -24.3708564814        5.6599669209      -23.7246759228  TIP3      10612           0.0000000000
     56753     10813  TIP3      OH2           -38.8986696860        7.3766786720      -20.5207324730  TIP3      10613           0.0000000000
     56754     10813  TIP3      H1            -38.7257831516        7.4799455986      -21.4657796026  TIP3      10613           0.0000000000
     56755     10813  TIP3      H2            -38.0168486850        7.4558949699      -20.1128657328  TIP3      10613           0.0000000000
     56756     10814  TIP3      OH2           -23.8933647731        1.5279244194      -31.1223887330  TIP3      10614           0.0000000000
     56757     10814  TIP3      H1            -23.3049384059        1.0873330697      -30.4803462008  TIP3      10614           0.0000000000
     56758     10814  TIP3      H2            -24.7571538190        1.1109117493      -30.9694324633  TIP3      10614           0.0000000000
     56759     10815  TIP3      OH2           -24.3454990042        3.0760252432      -26.1487549082  TIP3      10615           0.0000000000
     56760     10815  TIP3      H1            -24.0379084384        2.1442132046      -26.0415434408  TIP3      10615           0.0000000000
     56761     10815  TIP3      H2            -23.5280041253        3.4642048273      -26.4973621882  TIP3      10615           0.0000000000
     56762     10816  TIP3      OH2           -23.6764303608        0.3500177516      -26.0697691019  TIP3      10616           0.0000000000
     56763     10816  TIP3      H1            -23.4397535579       -0.1371771135      -25.2596846720  TIP3      10616           0.0000000000
     56764     10816  TIP3      H2            -24.2568039705       -0.2892903123      -26.5347595298  TIP3      10616           0.0000000000
     56765     10817  TIP3      OH2           -21.8392561941        0.3749823670      -29.5232659551  TIP3      10617           0.0000000000
     56766     10817  TIP3      H1            -21.4317136243       -0.3324148979      -30.0691003294  TIP3      10617           0.0000000000
     56767     10817  TIP3      H2            -21.1352887739        1.0411236909      -29.4868613514  TIP3      10617           0.0000000000
     56768     10818  TIP3      OH2           -39.4863047889        0.4005125218      -26.4750929511  TIP3      10618           0.0000000000
     56769     10818  TIP3      H1            -40.4226425223        0.6041460329      -26.5984697385  TIP3      10618           0.0000000000
     56770     10818  TIP3      H2            -39.0441906140        0.9144663210      -27.1802305754  TIP3      10618           0.0000000000
     56771     10819  TIP3      OH2           -24.7593933622       15.3172607137      -24.4415143796  TIP3      10619           0.0000000000
     56772     10819  TIP3      H1            -24.0961671363       15.0914158372      -25.1186121133  TIP3      10619           0.0000000000
     56773     10819  TIP3      H2            -24.2863540218       15.9186003540      -23.8491213707  TIP3      10619           0.0000000000
     56774     10820  TIP3      OH2           -37.7026192973       14.9986837756      -20.7876946358  TIP3      10620           0.0000000000
     56775     10820  TIP3      H1            -37.6462101195       14.8018862195      -19.8397179375  TIP3      10620           0.0000000000
     56776     10820  TIP3      H2            -36.7898712255       14.8612900465      -21.0928805655  TIP3      10620           0.0000000000
     56777     10821  TIP3      OH2           -29.4118082659       -0.0028393007      -22.0863239054  TIP3      10621           0.0000000000
     56778     10821  TIP3      H1            -30.0323272918       -0.6777973531      -21.7384341800  TIP3      10621           0.0000000000
     56779     10821  TIP3      H2            -28.8551813475       -0.5664106312      -22.6394903723  TIP3      10621           0.0000000000
     56780     10822  TIP3      OH2           -22.6110276065       -0.7130422389      -23.6807473054  TIP3      10622           0.0000000000
     56781     10822  TIP3      H1            -21.9381395646       -1.2708004635      -24.1417018912  TIP3      10622           0.0000000000
     56782     10822  TIP3      H2            -22.1224756179        0.1441933439      -23.6570460976  TIP3      10622           0.0000000000
     56783     10823  TIP3      OH2           -37.0626050814       -1.3471291163      -24.2596128966  TIP3      10623           0.0000000000
     56784     10823  TIP3      H1            -37.8179257496       -1.5685088525      -24.8203988750  TIP3      10623           0.0000000000
     56785     10823  TIP3      H2            -36.5521328232       -2.1772476658      -24.2692222443  TIP3      10623           0.0000000000
     56786     10824  TIP3      OH2           -38.3247278087       -1.6362861550      -28.5417965898  TIP3      10624           0.0000000000
     56787     10824  TIP3      H1            -37.7851438927       -1.0011369060      -29.0532105800  TIP3      10624           0.0000000000
     56788     10824  TIP3      H2            -38.8217502703       -1.0382967321      -27.9624368800  TIP3      10624           0.0000000000
     56789     10825  TIP3      OH2           -32.5650021838       -1.4788503677      -24.4436615022  TIP3      10625           0.0000000000
     56790     10825  TIP3      H1            -31.6778432748       -1.0838500690      -24.5057309349  TIP3      10625           0.0000000000
     56791     10825  TIP3      H2            -32.6600703009       -1.6391685909      -23.4943584914  TIP3      10625           0.0000000000
     56792     10826  TIP3      OH2           -26.8787100423       -1.3982289486      -22.7882528337  TIP3      10626           0.0000000000
     56793     10826  TIP3      H1            -26.9124479180       -1.3287665444      -23.7477543858  TIP3      10626           0.0000000000
     56794     10826  TIP3      H2            -27.2843644688       -2.2926237371      -22.6733047448  TIP3      10626           0.0000000000
     56795     10827  TIP3      OH2           -25.5965953950       -1.3907550180      -27.1071195899  TIP3      10627           0.0000000000
     56796     10827  TIP3      H1            -26.3479437077       -0.8130304517      -27.3112359305  TIP3      10627           0.0000000000
     56797     10827  TIP3      H2            -26.0360821586       -2.2540871882      -26.9137442916  TIP3      10627           0.0000000000
     56798     10828  TIP3      OH2           -38.3885892388       14.3159805665      -27.4969880420  TIP3      10628           0.0000000000
     56799     10828  TIP3      H1            -39.0388538681       14.3298139510      -28.2034436068  TIP3      10628           0.0000000000
     56800     10828  TIP3      H2            -38.3443206438       15.2710860589      -27.3163852223  TIP3      10628           0.0000000000
     56801     10829  TIP3      OH2           -36.4426997927        0.3179382207      -30.0086897915  TIP3      10629           0.0000000000
     56802     10829  TIP3      H1            -35.8818390130       -0.2796749870      -30.5314551924  TIP3      10629           0.0000000000
     56803     10829  TIP3      H2            -35.7718731851        0.6453107873      -29.3796835822  TIP3      10629           0.0000000000
     56804     10830  TIP3      OH2           -31.4373213346        0.5721091108      -27.5979901705  TIP3      10630           0.0000000000
     56805     10830  TIP3      H1            -31.1642019305       -0.0103742452      -26.8708757108  TIP3      10630           0.0000000000
     56806     10830  TIP3      H2            -31.3531676321        1.4339931508      -27.1339286056  TIP3      10630           0.0000000000
     56807     10831  TIP3      OH2           -29.4976209501       15.5985509933      -29.1423064267  TIP3      10631           0.0000000000
     56808     10831  TIP3      H1            -28.5943586543       15.8720616559      -29.3561642022  TIP3      10631           0.0000000000
     56809     10831  TIP3      H2            -29.7138140787       15.1155687726      -29.9658252566  TIP3      10631           0.0000000000
     56810     10832  TIP3      OH2           -22.7977868706       15.1293247469      -26.4222080030  TIP3      10632           0.0000000000
     56811     10832  TIP3      H1            -22.9950956784       14.3629694316      -27.0126959586  TIP3      10632           0.0000000000
     56812     10832  TIP3      H2            -22.8743073058       15.8733537056      -27.0522224219  TIP3      10632           0.0000000000
     56813     10833  TIP3      OH2           -36.6049010339       15.2774307606      -30.5405430095  TIP3      10633           0.0000000000
     56814     10833  TIP3      H1            -36.8117370020       15.5847636070      -29.6512744144  TIP3      10633           0.0000000000
     56815     10833  TIP3      H2            -35.7829056205       14.7666100552      -30.3897413835  TIP3      10633           0.0000000000
     56816     10834  TIP3      OH2            -9.0696882189        7.7957673076      -24.3786667653  TIP3      10634           0.0000000000
     56817     10834  TIP3      H1             -9.1652255497        8.7648249792      -24.3806453327  TIP3      10634           0.0000000000
     56818     10834  TIP3      H2             -9.8319861871        7.5069309393      -24.9116840588  TIP3      10634           0.0000000000
     56819     10835  TIP3      OH2           -10.1384527470        6.9969624918      -20.8699891126  TIP3      10635           0.0000000000
     56820     10835  TIP3      H1            -10.3240022035        6.3837402706      -20.1581150539  TIP3      10635           0.0000000000
     56821     10835  TIP3      H2            -10.5782452626        6.5910469116      -21.6305325787  TIP3      10635           0.0000000000
     56822     10836  TIP3      OH2            -6.4416138277        9.9386731022      -22.5927067163  TIP3      10636           0.0000000000
     56823     10836  TIP3      H1             -6.9979792977        9.2888673274      -22.1104669752  TIP3      10636           0.0000000000
     56824     10836  TIP3      H2             -6.6001355889       10.6756499125      -21.9659058636  TIP3      10636           0.0000000000
     56825     10837  TIP3      OH2           -20.3666703507        4.6838188791      -25.2779945577  TIP3      10637           0.0000000000
     56826     10837  TIP3      H1            -20.7083748400        5.5784259842      -25.4477031110  TIP3      10637           0.0000000000
     56827     10837  TIP3      H2            -20.8788171408        4.1679597330      -25.9154049009  TIP3      10637           0.0000000000
     56828     10838  TIP3      OH2            -9.4389043846       15.1501712114      -22.3585175542  TIP3      10638           0.0000000000
     56829     10838  TIP3      H1             -8.7986499096       14.4455090771      -22.6467417900  TIP3      10638           0.0000000000
     56830     10838  TIP3      H2             -9.6246141663       14.7491317743      -21.5029488924  TIP3      10638           0.0000000000
     56831     10839  TIP3      OH2           -15.5148136171        1.9426547496      -22.9106514925  TIP3      10639           0.0000000000
     56832     10839  TIP3      H1            -15.5230530809        2.8417737410      -23.2872378513  TIP3      10639           0.0000000000
     56833     10839  TIP3      H2            -16.0370066402        1.4323327736      -23.5557602070  TIP3      10639           0.0000000000
     56834     10840  TIP3      OH2            -7.8071210864        1.9853931148      -24.5743249715  TIP3      10640           0.0000000000
     56835     10840  TIP3      H1             -7.2363921785        1.7838942747      -23.8231151318  TIP3      10640           0.0000000000
     56836     10840  TIP3      H2             -7.3092357058        2.6696527017      -25.0333971442  TIP3      10640           0.0000000000
     56837     10841  TIP3      OH2           -13.7707019337        5.9419987417      -22.9310746219  TIP3      10641           0.0000000000
     56838     10841  TIP3      H1            -13.1843046086        5.4195238592      -22.3553759283  TIP3      10641           0.0000000000
     56839     10841  TIP3      H2            -14.3499964993        5.2489279026      -23.2873926952  TIP3      10641           0.0000000000
     56840     10842  TIP3      OH2            -9.2663557000       10.4067733845      -25.3233874594  TIP3      10642           0.0000000000
     56841     10842  TIP3      H1             -9.7276594196       10.0583270666      -26.1024830355  TIP3      10642           0.0000000000
     56842     10842  TIP3      H2             -9.7057136477       11.2871964190      -25.2292061580  TIP3      10642           0.0000000000
     56843     10843  TIP3      OH2           -19.6571768531       10.1391863813      -26.9792923781  TIP3      10643           0.0000000000
     56844     10843  TIP3      H1            -19.8949599914       10.4784457274      -27.8607046344  TIP3      10643           0.0000000000
     56845     10843  TIP3      H2            -19.5398587439       10.9718868887      -26.4778111601  TIP3      10643           0.0000000000
     56846     10844  TIP3      OH2           -12.7170160766       -1.8110541421      -21.3576457076  TIP3      10644           0.0000000000
     56847     10844  TIP3      H1            -12.8300624725       -2.7651328452      -21.4499976338  TIP3      10644           0.0000000000
     56848     10844  TIP3      H2            -13.5803062227       -1.5075115761      -21.0973141842  TIP3      10644           0.0000000000
     56849     10845  TIP3      OH2            -7.8013737278       13.5990628188      -23.6560707101  TIP3      10645           0.0000000000
     56850     10845  TIP3      H1             -7.3412948770       12.8942874439      -24.1256883232  TIP3      10645           0.0000000000
     56851     10845  TIP3      H2             -7.3356022023       14.3965217915      -23.9929254253  TIP3      10645           0.0000000000
     56852     10846  TIP3      OH2            -6.3647979561       11.3565851609      -25.1165838385  TIP3      10646           0.0000000000
     56853     10846  TIP3      H1             -7.0060757770       10.8885404938      -25.6811591595  TIP3      10646           0.0000000000
     56854     10846  TIP3      H2             -6.6282075992       11.1048775892      -24.2131543559  TIP3      10646           0.0000000000
     56855     10847  TIP3      OH2           -10.4748966211        7.0013538113      -26.8599998910  TIP3      10647           0.0000000000
     56856     10847  TIP3      H1            -11.1562901057        7.5899287150      -27.2281612626  TIP3      10647           0.0000000000
     56857     10847  TIP3      H2             -9.7786563220        7.0824716954      -27.5378535392  TIP3      10647           0.0000000000
     56858     10848  TIP3      OH2           -10.3736526532        5.5705298690      -29.8573552176  TIP3      10648           0.0000000000
     56859     10848  TIP3      H1             -9.6942827756        5.5294330264      -29.1711695036  TIP3      10648           0.0000000000
     56860     10848  TIP3      H2            -10.0741504538        4.8494796482      -30.4277976057  TIP3      10648           0.0000000000
     56861     10849  TIP3      OH2            -6.9044539263        7.3456117884      -25.8304912694  TIP3      10649           0.0000000000
     56862     10849  TIP3      H1             -7.7723401961        7.4108995261      -25.3269613887  TIP3      10649           0.0000000000
     56863     10849  TIP3      H2             -6.5756574285        6.5043606674      -25.4523099402  TIP3      10649           0.0000000000
     56864     10850  TIP3      OH2           -15.4150729940        7.8845969392      -24.0115692581  TIP3      10650           0.0000000000
     56865     10850  TIP3      H1            -15.7288802666        7.4624119042      -24.8396663878  TIP3      10650           0.0000000000
     56866     10850  TIP3      H2            -14.7731312128        7.2083040482      -23.6836014863  TIP3      10650           0.0000000000
     56867     10851  TIP3      OH2            -8.1220114652        6.4490723817      -28.2513115020  TIP3      10651           0.0000000000
     56868     10851  TIP3      H1             -7.5587969637        6.5673166598      -27.4672511598  TIP3      10651           0.0000000000
     56869     10851  TIP3      H2             -7.6900233227        6.8952771661      -29.0089617105  TIP3      10651           0.0000000000
     56870     10852  TIP3      OH2           -10.4200725316       13.1103197405      -24.8163558645  TIP3      10652           0.0000000000
     56871     10852  TIP3      H1             -9.9869187178       13.4025324087      -24.0017301966  TIP3      10652           0.0000000000
     56872     10852  TIP3      H2            -10.9696597020       13.8673586944      -25.0542200276  TIP3      10652           0.0000000000
     56873     10853  TIP3      OH2            -4.4032910608       -1.8503060981      -28.3722106906  TIP3      10653           0.0000000000
     56874     10853  TIP3      H1             -5.3474732029       -1.7336531715      -28.1155508904  TIP3      10653           0.0000000000
     56875     10853  TIP3      H2             -4.2012640633       -1.0067295059      -28.8126508927  TIP3      10653           0.0000000000
     56876     10854  TIP3      OH2           -16.4290897398        6.8855254860      -26.4042401445  TIP3      10654           0.0000000000
     56877     10854  TIP3      H1            -16.7211189557        7.6748577004      -26.9020973166  TIP3      10654           0.0000000000
     56878     10854  TIP3      H2            -17.0767261962        6.2205831760      -26.6392338672  TIP3      10654           0.0000000000
     56879     10855  TIP3      OH2            -3.2832486723       12.4782022265      -29.9998001599  TIP3      10655           0.0000000000
     56880     10855  TIP3      H1             -3.1273483117       13.4327309864      -29.8572571822  TIP3      10655           0.0000000000
     56881     10855  TIP3      H2             -2.3480067055       12.2032143665      -30.0256815373  TIP3      10655           0.0000000000
     56882     10856  TIP3      OH2           -10.9394455447       16.0552042270      -26.3682808150  TIP3      10656           0.0000000000
     56883     10856  TIP3      H1            -11.0413683758       15.9714127287      -27.3319999736  TIP3      10656           0.0000000000
     56884     10856  TIP3      H2            -10.9276244187       17.0164684995      -26.2313563708  TIP3      10656           0.0000000000
     56885     10857  TIP3      OH2           -17.2618703174       14.9100707117      -24.5900516222  TIP3      10657           0.0000000000
     56886     10857  TIP3      H1            -17.1373833566       14.5252305320      -23.6956088861  TIP3      10657           0.0000000000
     56887     10857  TIP3      H2            -18.1250000737       14.5336103862      -24.8225622698  TIP3      10657           0.0000000000
     56888     10858  TIP3      OH2            -7.8800848155       15.2690119064      -29.4167790285  TIP3      10658           0.0000000000
     56889     10858  TIP3      H1             -7.4252486969       14.5172669700      -29.8508495233  TIP3      10658           0.0000000000
     56890     10858  TIP3      H2             -7.8375079197       15.0037541313      -28.4709509455  TIP3      10658           0.0000000000
     56891     10859  TIP3      OH2            -8.1757384416       15.1816700941      -26.6433941053  TIP3      10659           0.0000000000
     56892     10859  TIP3      H1             -9.1364684338       15.2686451226      -26.4685315860  TIP3      10659           0.0000000000
     56893     10859  TIP3      H2             -7.9452406931       14.4664751370      -26.0318786874  TIP3      10659           0.0000000000
     56894     10860  TIP3      OH2            -6.6499997415        7.5121422480      -30.4530767879  TIP3      10660           0.0000000000
     56895     10860  TIP3      H1             -6.7634670122        7.2166586454      -31.3983166437  TIP3      10660           0.0000000000
     56896     10860  TIP3      H2             -5.7478359657        7.7976497176      -30.5536214897  TIP3      10660           0.0000000000
     56897     10861  TIP3      OH2           -11.0804492019        1.3704775205      -29.9462410699  TIP3      10661           0.0000000000
     56898     10861  TIP3      H1            -11.3958897085        1.3070048010      -29.0261443946  TIP3      10661           0.0000000000
     56899     10861  TIP3      H2            -11.3896009620        0.4939783269      -30.2536395036  TIP3      10661           0.0000000000
     56900     10862  TIP3      OH2           -15.3196709459        4.2115541178      -24.5084065794  TIP3      10662           0.0000000000
     56901     10862  TIP3      H1            -16.2533238456        3.9428732085      -24.6220189788  TIP3      10662           0.0000000000
     56902     10862  TIP3      H2            -14.9254256442        3.9017984831      -25.3455902076  TIP3      10662           0.0000000000
     56903     10863  TIP3      OH2            -9.8195931209        4.6902653326      -25.7406463420  TIP3      10663           0.0000000000
     56904     10863  TIP3      H1            -10.1845500283        5.5322235245      -26.0886872672  TIP3      10663           0.0000000000
     56905     10863  TIP3      H2             -9.0947445775        4.5451318928      -26.3592423880  TIP3      10663           0.0000000000
     56906     10864  TIP3      OH2           -14.2710234873        1.7355068797      -30.8288114234  TIP3      10664           0.0000000000
     56907     10864  TIP3      H1            -14.7253805145        1.3152787606      -30.0703291347  TIP3      10664           0.0000000000
     56908     10864  TIP3      H2            -14.9802992645        2.1682064321      -31.3196579319  TIP3      10664           0.0000000000
     56909     10865  TIP3      OH2           -20.9984598345        1.4528328383      -23.7386382649  TIP3      10665           0.0000000000
     56910     10865  TIP3      H1            -20.3177652368        1.4810457776      -23.0561647657  TIP3      10665           0.0000000000
     56911     10865  TIP3      H2            -20.5218419322        1.0573310393      -24.4901018318  TIP3      10665           0.0000000000
     56912     10866  TIP3      OH2           -19.7291723937        2.1640790040      -28.3705615328  TIP3      10666           0.0000000000
     56913     10866  TIP3      H1            -19.1998528191        2.7769647254      -28.9125032235  TIP3      10666           0.0000000000
     56914     10866  TIP3      H2            -20.3942007714        2.8019952119      -28.0335599733  TIP3      10666           0.0000000000
     56915     10867  TIP3      OH2           -12.7422112611        1.7289381115      -23.4953988719  TIP3      10667           0.0000000000
     56916     10867  TIP3      H1            -13.6772942247        1.7763742181      -23.1949772926  TIP3      10667           0.0000000000
     56917     10867  TIP3      H2            -12.2433320203        1.6422969975      -22.6706059588  TIP3      10667           0.0000000000
     56918     10868  TIP3      OH2           -17.9176608144        3.3330167867      -24.6962248073  TIP3      10668           0.0000000000
     56919     10868  TIP3      H1            -18.8387914965        3.4563477321      -24.9903290453  TIP3      10668           0.0000000000
     56920     10868  TIP3      H2            -17.6557731846        2.4501914983      -25.0064236960  TIP3      10668           0.0000000000
     56921     10869  TIP3      OH2           -14.2872673489        3.3567192545      -26.9957457724  TIP3      10669           0.0000000000
     56922     10869  TIP3      H1            -13.3310990448        3.4736393619      -26.8258912585  TIP3      10669           0.0000000000
     56923     10869  TIP3      H2            -14.5291873814        4.0404678735      -27.6493010817  TIP3      10669           0.0000000000
     56924     10870  TIP3      OH2           -15.5847657515        4.5341369436      -29.4096714179  TIP3      10670           0.0000000000
     56925     10870  TIP3      H1            -16.1211865940        4.1557546414      -30.1281168588  TIP3      10670           0.0000000000
     56926     10870  TIP3      H2            -14.7684329816        4.7425722505      -29.8860880523  TIP3      10670           0.0000000000
     56927     10871  TIP3      OH2           -11.4355851199        4.4813278710      -21.6275503414  TIP3      10671           0.0000000000
     56928     10871  TIP3      H1            -10.8490633240        3.9224273641      -22.1367506775  TIP3      10671           0.0000000000
     56929     10871  TIP3      H2            -11.6149662698        3.9905829719      -20.8157730489  TIP3      10671           0.0000000000
     56930     10872  TIP3      OH2           -16.4784058739        0.6686075592      -25.1979830491  TIP3      10672           0.0000000000
     56931     10872  TIP3      H1            -16.7602242365       -0.2596642004      -25.1835794524  TIP3      10672           0.0000000000
     56932     10872  TIP3      H2            -15.6663060647        0.6088880448      -25.7120656181  TIP3      10672           0.0000000000
     56933     10873  TIP3      OH2           -12.2219071176        9.0586562062      -27.4939242794  TIP3      10673           0.0000000000
     56934     10873  TIP3      H1            -13.0291583669        8.6001116250      -27.8264099913  TIP3      10673           0.0000000000
     56935     10873  TIP3      H2            -12.4633757202        9.1871816138      -26.5495616700  TIP3      10673           0.0000000000
     56936     10874  TIP3      OH2            -8.4099696991        1.8914358375      -29.3206864908  TIP3      10674           0.0000000000
     56937     10874  TIP3      H1             -9.3613403047        2.0391168627      -29.4498428407  TIP3      10674           0.0000000000
     56938     10874  TIP3      H2             -8.0744693112        2.7326369467      -28.9394857877  TIP3      10674           0.0000000000
     56939     10875  TIP3      OH2            -7.6705711697        3.7833916699      -27.6839307536  TIP3      10675           0.0000000000
     56940     10875  TIP3      H1             -6.7818748135        3.6612426116      -27.2885087523  TIP3      10675           0.0000000000
     56941     10875  TIP3      H2             -7.5813724878        4.6022268344      -28.1917419903  TIP3      10675           0.0000000000
     56942     10876  TIP3      OH2           -17.1347261182        8.3554860914      -21.8092516764  TIP3      10676           0.0000000000
     56943     10876  TIP3      H1            -16.3738689728        8.3913442211      -22.4153503850  TIP3      10676           0.0000000000
     56944     10876  TIP3      H2            -16.9318670956        7.6308469298      -21.2201351483  TIP3      10676           0.0000000000
     56945     10877  TIP3      OH2           -10.1298673047       10.5280671433      -28.4514882645  TIP3      10677           0.0000000000
     56946     10877  TIP3      H1            -10.4827076065       11.3748489238      -28.1065431911  TIP3      10677           0.0000000000
     56947     10877  TIP3      H2            -10.8763036530        9.9209118176      -28.2430731316  TIP3      10677           0.0000000000
     56948     10878  TIP3      OH2            -2.7722479815        3.9331289362      -27.9082446289  TIP3      10678           0.0000000000
     56949     10878  TIP3      H1             -3.3334577058        3.6327659976      -28.6475738617  TIP3      10678           0.0000000000
     56950     10878  TIP3      H2             -2.6901749427        4.8766052327      -28.1660160654  TIP3      10678           0.0000000000
     56951     10879  TIP3      OH2            -4.5005623378       12.7661887426      -27.5225100786  TIP3      10679           0.0000000000
     56952     10879  TIP3      H1             -4.8600863097       11.9494415363      -27.1714965779  TIP3      10679           0.0000000000
     56953     10879  TIP3      H2             -4.1543771391       12.5820536954      -28.4086284460  TIP3      10679           0.0000000000
     56954     10880  TIP3      OH2            -7.2595871753        7.5350135946      -20.4416760033  TIP3      10680           0.0000000000
     56955     10880  TIP3      H1             -8.2323014215        7.3926112754      -20.5119554504  TIP3      10680           0.0000000000
     56956     10880  TIP3      H2             -6.9195729052        6.7079366339      -20.7975683375  TIP3      10680           0.0000000000
     56957     10881  TIP3      OH2           -14.7697871707       11.9290818211      -24.2671905409  TIP3      10681           0.0000000000
     56958     10881  TIP3      H1            -14.2460577443       12.7123349056      -24.5053281055  TIP3      10681           0.0000000000
     56959     10881  TIP3      H2            -15.6372775311       12.1508938584      -24.6315273000  TIP3      10681           0.0000000000
     56960     10882  TIP3      OH2           -18.9892540395        6.7613098340      -29.7466618537  TIP3      10682           0.0000000000
     56961     10882  TIP3      H1            -18.4117049924        7.4142453340      -29.3151415485  TIP3      10682           0.0000000000
     56962     10882  TIP3      H2            -19.8790368055        7.0655155797      -29.4769545698  TIP3      10682           0.0000000000
     56963     10883  TIP3      OH2           -13.3920281967        9.5870872337      -24.8810245362  TIP3      10683           0.0000000000
     56964     10883  TIP3      H1            -13.6379033650       10.5026029244      -24.6548112134  TIP3      10683           0.0000000000
     56965     10883  TIP3      H2            -14.0394734518        9.0932935017      -24.3360075279  TIP3      10683           0.0000000000
     56966     10884  TIP3      OH2           -14.6582590387       14.5861143932      -25.2667586311  TIP3      10684           0.0000000000
     56967     10884  TIP3      H1            -15.6287321069       14.7301460110      -25.1550707669  TIP3      10684           0.0000000000
     56968     10884  TIP3      H2            -14.2978272683       15.4160797076      -24.9220178838  TIP3      10684           0.0000000000
     56969     10885  TIP3      OH2            -6.9998580010       10.7499749925      -29.6473413413  TIP3      10685           0.0000000000
     56970     10885  TIP3      H1             -6.8806363481       10.4325520161      -28.7425989273  TIP3      10685           0.0000000000
     56971     10885  TIP3      H2             -7.9810393951       10.6964759338      -29.6472902862  TIP3      10685           0.0000000000
     56972     10886  TIP3      OH2            -2.5675830051       15.1923351036      -29.4151518604  TIP3      10686           0.0000000000
     56973     10886  TIP3      H1             -1.8782878478       15.8559655895      -29.6198212603  TIP3      10686           0.0000000000
     56974     10886  TIP3      H2             -3.2797825409       15.8058389934      -29.1274605456  TIP3      10686           0.0000000000
     56975     10887  TIP3      OH2            -6.2350154736        9.4540431733      -27.3951988070  TIP3      10687           0.0000000000
     56976     10887  TIP3      H1             -6.5541949612        8.6677757281      -26.8841272534  TIP3      10687           0.0000000000
     56977     10887  TIP3      H2             -5.3086170860        9.5426381529      -27.1291793166  TIP3      10687           0.0000000000
     56978     10888  TIP3      OH2           -12.8959360924       11.9102543136      -31.1695229612  TIP3      10688           0.0000000000
     56979     10888  TIP3      H1            -12.8046798336       11.1499506869      -31.7658210542  TIP3      10688           0.0000000000
     56980     10888  TIP3      H2            -13.3441553396       11.4799429354      -30.4087223005  TIP3      10688           0.0000000000
     56981     10889  TIP3      OH2           -14.1265168216       11.4373682270      -28.7065262454  TIP3      10689           0.0000000000
     56982     10889  TIP3      H1            -13.8580562442       10.9272733051      -27.9339406091  TIP3      10689           0.0000000000
     56983     10889  TIP3      H2            -14.0392801469       12.3711309994      -28.4034214807  TIP3      10689           0.0000000000
     56984     10890  TIP3      OH2           -17.5906798346        8.6782742584      -28.2201616173  TIP3      10690           0.0000000000
     56985     10890  TIP3      H1            -18.3045179375        9.0796445583      -27.6883754780  TIP3      10690           0.0000000000
     56986     10890  TIP3      H2            -17.0834467978        9.4553620914      -28.5173228960  TIP3      10690           0.0000000000
     56987     10891  TIP3      OH2            -9.0029892755        0.9345746911      -26.8390210107  TIP3      10691           0.0000000000
     56988     10891  TIP3      H1             -8.7884275934        1.4034912966      -27.6701622265  TIP3      10691           0.0000000000
     56989     10891  TIP3      H2             -8.4414626488        1.3936829425      -26.1936659036  TIP3      10691           0.0000000000
     56990     10892  TIP3      OH2           -11.3237643034       13.1006088485      -28.0268117076  TIP3      10692           0.0000000000
     56991     10892  TIP3      H1            -12.1425898684       13.6315774364      -27.9504225321  TIP3      10692           0.0000000000
     56992     10892  TIP3      H2            -10.7912342556       13.6549402219      -28.6159125003  TIP3      10692           0.0000000000
     56993     10893  TIP3      OH2           -11.7801947813        2.6933592924      -26.0119446437  TIP3      10693           0.0000000000
     56994     10893  TIP3      H1            -10.9947260052        3.2781952299      -25.9363985236  TIP3      10693           0.0000000000
     56995     10893  TIP3      H2            -12.0481195936        2.5508448920      -25.0856043357  TIP3      10693           0.0000000000
     56996     10894  TIP3      OH2           -10.9078401691       -0.2439481947      -25.1165747883  TIP3      10694           0.0000000000
     56997     10894  TIP3      H1            -11.2386141338        0.4247888364      -24.4920449622  TIP3      10694           0.0000000000
     56998     10894  TIP3      H2            -10.2382790439        0.2992882263      -25.5954724189  TIP3      10694           0.0000000000
     56999     10895  TIP3      OH2           -13.9207533548       14.1347356795      -27.9955162626  TIP3      10695           0.0000000000
     57000     10895  TIP3      H1            -13.8299940379       14.9488614877      -28.5471734498  TIP3      10695           0.0000000000
     57001     10895  TIP3      H2            -14.1879400259       14.5017650817      -27.1249346541  TIP3      10695           0.0000000000
     57002     10896  TIP3      OH2           -15.2760677936        0.8556890714      -28.4172844386  TIP3      10696           0.0000000000
     57003     10896  TIP3      H1            -15.3267741008        1.7538574145      -28.0321506238  TIP3      10696           0.0000000000
     57004     10896  TIP3      H2            -14.3675051015        0.6123971884      -28.1530457407  TIP3      10696           0.0000000000
     57005     10897  TIP3      OH2           -17.0413379409       11.2943798214      -29.3789865082  TIP3      10697           0.0000000000
     57006     10897  TIP3      H1            -16.3682270880       11.9135563678      -29.0594179505  TIP3      10697           0.0000000000
     57007     10897  TIP3      H2            -16.5207876230       10.8285254510      -30.0642594489  TIP3      10697           0.0000000000
     57008     10898  TIP3      OH2           -18.6977277255        3.9720819847      -30.2300592801  TIP3      10698           0.0000000000
     57009     10898  TIP3      H1            -18.6772224544        4.9293976932      -30.0239026164  TIP3      10698           0.0000000000
     57010     10898  TIP3      H2            -19.5909631242        3.7970682724      -30.5353452100  TIP3      10698           0.0000000000
     57011     10899  TIP3      OH2           -17.7956320879       -1.2410153915      -21.5327096311  TIP3      10699           0.0000000000
     57012     10899  TIP3      H1            -18.0641131864       -1.1359676181      -22.4648734477  TIP3      10699           0.0000000000
     57013     10899  TIP3      H2            -18.3463669182       -1.9800932409      -21.2718918960  TIP3      10699           0.0000000000
     57014     10900  TIP3      OH2           -18.9500281499       12.6751681185      -25.3552046759  TIP3      10700           0.0000000000
     57015     10900  TIP3      H1            -19.7806481932       13.1656590574      -25.4257323257  TIP3      10700           0.0000000000
     57016     10900  TIP3      H2            -18.4412050773       13.1381025629      -26.0400476976  TIP3      10700           0.0000000000
     57017     10901  TIP3      OH2           -10.9049170952       13.7605375776      -31.0487286650  TIP3      10701           0.0000000000
     57018     10901  TIP3      H1            -11.5982961393       13.1014658750      -30.8230054344  TIP3      10701           0.0000000000
     57019     10901  TIP3      H2            -10.1868734153       13.1624387125      -31.2960484516  TIP3      10701           0.0000000000
     57020     10902  TIP3      OH2            -6.3565520503       13.4999653970      -30.8616876178  TIP3      10702           0.0000000000
     57021     10902  TIP3      H1             -6.0410519616       12.7491311997      -30.3469982863  TIP3      10702           0.0000000000
     57022     10902  TIP3      H2             -5.5973181144       13.7375974256      -31.4143482787  TIP3      10702           0.0000000000
     57023     10903  TIP3      OH2           -15.4568418503        9.4470341786      -31.0403302953  TIP3      10703           0.0000000000
     57024     10903  TIP3      H1            -15.3163049835        8.6859627352      -30.4515884741  TIP3      10703           0.0000000000
     57025     10903  TIP3      H2            -14.7116779294        9.3280580198      -31.6612826881  TIP3      10703           0.0000000000
     57026     10904  TIP3      OH2            -9.9942231784       10.5496420717      -31.2659051707  TIP3      10704           0.0000000000
     57027     10904  TIP3      H1            -10.3326383420       10.6517959790      -30.3593680505  TIP3      10704           0.0000000000
     57028     10904  TIP3      H2            -10.2341600468        9.6026311044      -31.4195449907  TIP3      10704           0.0000000000
     57029     10905  TIP3      OH2           -14.2732177616        7.4707620630      -28.6365393911  TIP3      10705           0.0000000000
     57030     10905  TIP3      H1            -14.7629543142        6.9319377204      -27.9922672241  TIP3      10705           0.0000000000
     57031     10905  TIP3      H2            -13.9594379197        6.7886652547      -29.2727445981  TIP3      10705           0.0000000000
     57032     10906  TIP3      OH2           -13.1820084092        5.6868222937      -30.4155267982  TIP3      10706           0.0000000000
     57033     10906  TIP3      H1            -13.3381167922        5.5986591298      -31.3762538881  TIP3      10706           0.0000000000
     57034     10906  TIP3      H2            -12.2066729518        5.7389040075      -30.3495015078  TIP3      10706           0.0000000000
     57035     10907  TIP3      OH2            -3.9200657257        8.0322599863      -30.9866134152  TIP3      10707           0.0000000000
     57036     10907  TIP3      H1             -4.0075444004        7.6030783594      -31.8655927844  TIP3      10707           0.0000000000
     57037     10907  TIP3      H2             -3.6999835749        8.9577879922      -31.2712581084  TIP3      10707           0.0000000000
     57038     10908  TIP3      OH2           -13.3521474285       16.3910203326      -29.3357721401  TIP3      10708           0.0000000000
     57039     10908  TIP3      H1            -12.3848670948       16.4716463044      -29.2708041646  TIP3      10708           0.0000000000
     57040     10908  TIP3      H2            -13.4986323974       16.9891048704      -30.0785099719  TIP3      10708           0.0000000000
     57041     10909  TIP3      OH2           -19.8003025421       10.9589453065      -29.8675562209  TIP3      10709           0.0000000000
     57042     10909  TIP3      H1            -18.8328833028       11.0550559095      -29.6903822050  TIP3      10709           0.0000000000
     57043     10909  TIP3      H2            -19.7499962936       10.3177420278      -30.6161029239  TIP3      10709           0.0000000000
     57044     10910  TIP3      OH2           -20.9883061240       16.3359467483      -24.9384799653  TIP3      10710           0.0000000000
     57045     10910  TIP3      H1            -21.7191129444       15.8656924577      -25.3986817399  TIP3      10710           0.0000000000
     57046     10910  TIP3      H2            -20.7243977030       15.7118603568      -24.2398641653  TIP3      10710           0.0000000000
     57047     10911  TIP3      OH2           -20.2458207824       14.4908841863      -23.0950249942  TIP3      10711           0.0000000000
     57048     10911  TIP3      H1            -20.4502632030       13.6043386775      -22.8405371035  TIP3      10711           0.0000000000
     57049     10911  TIP3      H2            -19.9452717682       14.8590318130      -22.2221591531  TIP3      10711           0.0000000000
     57050     10912  TIP3      OH2            -3.3942144747        8.9544095352      -27.0185148787  TIP3      10712           0.0000000000
     57051     10912  TIP3      H1             -2.4818181728        9.3240156445      -26.9085020323  TIP3      10712           0.0000000000
     57052     10912  TIP3      H2             -3.2901325505        8.1834540646      -26.4059467274  TIP3      10712           0.0000000000
     57053     10913  TIP3      OH2            -3.0670968508        7.1170987704      -25.1005034822  TIP3      10713           0.0000000000
     57054     10913  TIP3      H1             -3.6680557532        6.4207574596      -24.7420869597  TIP3      10713           0.0000000000
     57055     10913  TIP3      H2             -2.3409358936        7.1110935061      -24.4289366516  TIP3      10713           0.0000000000
     57056     10914  TIP3      OH2            -2.6949497438        6.8054741206      -28.7439689804  TIP3      10714           0.0000000000
     57057     10914  TIP3      H1             -3.1738470731        7.1291033800      -29.5300178119  TIP3      10714           0.0000000000
     57058     10914  TIP3      H2             -2.7010788029        7.5413904646      -28.1177926204  TIP3      10714           0.0000000000
     57059     10915  TIP3      OH2            -4.3046533491        4.0911196067      -30.2552121486  TIP3      10715           0.0000000000
     57060     10915  TIP3      H1             -4.2000009373        4.7107091086      -30.9808987381  TIP3      10715           0.0000000000
     57061     10915  TIP3      H2             -4.4685941860        3.2454945705      -30.7228162451  TIP3      10715           0.0000000000
     57062     10916  TIP3      OH2            -5.1774327140        5.5080835838      -24.5961373990  TIP3      10716           0.0000000000
     57063     10916  TIP3      H1             -5.2762184204        4.5354452281      -24.6513809781  TIP3      10716           0.0000000000
     57064     10916  TIP3      H2             -5.4760448305        5.6466518470      -23.6907596262  TIP3      10716           0.0000000000
     57065     10917  TIP3      OH2            -5.0385461607        1.5298852467      -31.1197960534  TIP3      10717           0.0000000000
     57066     10917  TIP3      H1             -4.4489157864        1.0864499089      -30.4788868371  TIP3      10717           0.0000000000
     57067     10917  TIP3      H2             -5.9015642397        1.1119889236      -30.9712927213  TIP3      10717           0.0000000000
     57068     10918  TIP3      OH2            -5.4801363029        3.0562124738      -26.2059633897  TIP3      10718           0.0000000000
     57069     10918  TIP3      H1             -5.1798997031        2.1398039358      -26.0048281064  TIP3      10718           0.0000000000
     57070     10918  TIP3      H2             -4.6518290056        3.4527170619      -26.5022058899  TIP3      10718           0.0000000000
     57071     10919  TIP3      OH2            -4.7901947371        0.3342566540      -26.1188088209  TIP3      10719           0.0000000000
     57072     10919  TIP3      H1             -4.6055255359       -0.0989757294      -25.2557729671  TIP3      10719           0.0000000000
     57073     10919  TIP3      H2             -5.4101046193       -0.2997726178      -26.5367138335  TIP3      10719           0.0000000000
     57074     10920  TIP3      OH2            -2.9851633969        0.3809871381      -29.5398092619  TIP3      10720           0.0000000000
     57075     10920  TIP3      H1             -2.5729986012       -0.3346843096      -30.0717004947  TIP3      10720           0.0000000000
     57076     10920  TIP3      H2             -2.2774772569        1.0406123018      -29.4904453340  TIP3      10720           0.0000000000
     57077     10921  TIP3      OH2           -20.6715713872        0.4255988173      -26.4302078154  TIP3      10721           0.0000000000
     57078     10921  TIP3      H1            -21.6073933664        0.5996156394      -26.5980515791  TIP3      10721           0.0000000000
     57079     10921  TIP3      H2            -20.2481338847        0.9081175112      -27.1594594359  TIP3      10721           0.0000000000
     57080     10922  TIP3      OH2            -5.9194564185       15.3461408579      -24.4487414281  TIP3      10722           0.0000000000
     57081     10922  TIP3      H1             -5.2435161078       15.1012524836      -25.1082438744  TIP3      10722           0.0000000000
     57082     10922  TIP3      H2             -5.4253855567       15.8650362784      -23.7894151762  TIP3      10722           0.0000000000
     57083     10923  TIP3      OH2           -18.7946570038       15.0260469999      -20.8354543652  TIP3      10723           0.0000000000
     57084     10923  TIP3      H1            -18.7257158097       14.8081348111      -19.8832714349  TIP3      10723           0.0000000000
     57085     10923  TIP3      H2            -17.8796263909       14.8442952205      -21.1085297278  TIP3      10723           0.0000000000
     57086     10924  TIP3      OH2           -16.6482507274       13.8321499312      -22.1275256119  TIP3      10724           0.0000000000
     57087     10924  TIP3      H1            -16.7970795047       12.9106748379      -21.8880511409  TIP3      10724           0.0000000000
     57088     10924  TIP3      H2            -15.8386077409       14.0339156154      -21.6093810219  TIP3      10724           0.0000000000
     57089     10925  TIP3      OH2           -14.0812253021       14.3280394183      -21.2223446421  TIP3      10725           0.0000000000
     57090     10925  TIP3      H1            -13.8246629330       13.4392830840      -21.4932519489  TIP3      10725           0.0000000000
     57091     10925  TIP3      H2            -14.0559421499       14.2740621606      -20.2552543488  TIP3      10725           0.0000000000
     57092     10926  TIP3      OH2           -10.5927785817       -0.0231385290      -22.1107817670  TIP3      10726           0.0000000000
     57093     10926  TIP3      H1            -11.2352079259       -0.6753061173      -21.8052229768  TIP3      10726           0.0000000000
     57094     10926  TIP3      H2             -9.9681412940       -0.4994338054      -22.6657871757  TIP3      10726           0.0000000000
     57095     10927  TIP3      OH2            -5.4268896672       -1.9552160481      -22.0129619796  TIP3      10727           0.0000000000
     57096     10927  TIP3      H1             -4.7944386805       -1.3491610485      -22.4619941140  TIP3      10727           0.0000000000
     57097     10927  TIP3      H2             -6.2757621254       -1.5137043152      -22.1857875331  TIP3      10727           0.0000000000
     57098     10928  TIP3      OH2            -3.7578303953       -0.6915927524      -23.7568771717  TIP3      10728           0.0000000000
     57099     10928  TIP3      H1             -3.0587907390       -1.2758045419      -24.1272581796  TIP3      10728           0.0000000000
     57100     10928  TIP3      H2             -3.2414964063        0.1379912627      -23.6314472674  TIP3      10728           0.0000000000
     57101     10929  TIP3      OH2           -18.1775969360       -1.3863979915      -24.2417043734  TIP3      10729           0.0000000000
     57102     10929  TIP3      H1            -18.9725340456       -1.5562022946      -24.7771256886  TIP3      10729           0.0000000000
     57103     10929  TIP3      H2            -17.7210800839       -2.2459430354      -24.2991564564  TIP3      10729           0.0000000000
     57104     10930  TIP3      OH2           -19.4270225344       -1.6181603961      -28.5105650777  TIP3      10730           0.0000000000
     57105     10930  TIP3      H1            -18.9334488281       -0.9683044358      -29.0431880383  TIP3      10730           0.0000000000
     57106     10930  TIP3      H2            -19.9931382142       -1.0428973957      -27.9710109143  TIP3      10730           0.0000000000
     57107     10931  TIP3      OH2           -13.6920097484       -1.5079684268      -24.4275818813  TIP3      10731           0.0000000000
     57108     10931  TIP3      H1            -12.8253866938       -1.0735217511      -24.5126730395  TIP3      10731           0.0000000000
     57109     10931  TIP3      H2            -13.7763311864       -1.6354794504      -23.4879313046  TIP3      10731           0.0000000000
     57110     10932  TIP3      OH2            -8.0396619392       -1.3815437445      -22.8220000146  TIP3      10732           0.0000000000
     57111     10932  TIP3      H1             -8.0188121581       -1.2544133593      -23.7729912259  TIP3      10732           0.0000000000
     57112     10932  TIP3      H2             -8.3291315159       -2.2861143544      -22.7536320794  TIP3      10732           0.0000000000
     57113     10933  TIP3      OH2            -6.7465764470       -1.3872216502      -27.0960745164  TIP3      10733           0.0000000000
     57114     10933  TIP3      H1             -7.4936450529       -0.8010611157      -27.2972011436  TIP3      10733           0.0000000000
     57115     10933  TIP3      H2             -7.1841616461       -2.2547397281      -26.9208700375  TIP3      10733           0.0000000000
     57116     10934  TIP3      OH2           -19.5104919880       14.3320712954      -27.4781203512  TIP3      10734           0.0000000000
     57117     10934  TIP3      H1            -20.1687081953       14.3148310385      -28.1968339664  TIP3      10734           0.0000000000
     57118     10934  TIP3      H2            -19.5136506343       15.2858790069      -27.2986305493  TIP3      10734           0.0000000000
     57119     10935  TIP3      OH2           -17.5983254769        0.3240083887      -29.9974653223  TIP3      10735           0.0000000000
     57120     10935  TIP3      H1            -17.0664394785       -0.2936987972      -30.5257196565  TIP3      10735           0.0000000000
     57121     10935  TIP3      H2            -16.9323387334        0.6464978332      -29.3627363380  TIP3      10735           0.0000000000
     57122     10936  TIP3      OH2           -12.5694942015        0.5736882345      -27.5898105140  TIP3      10736           0.0000000000
     57123     10936  TIP3      H1            -12.3215104370       -0.0115035425      -26.8554261780  TIP3      10736           0.0000000000
     57124     10936  TIP3      H2            -12.4852323023        1.4404530680      -27.1288722739  TIP3      10736           0.0000000000
     57125     10937  TIP3      OH2           -10.6382325090       15.6406162357      -29.1485604025  TIP3      10737           0.0000000000
     57126     10937  TIP3      H1             -9.7203883748       15.8660297314      -29.3688564680  TIP3      10737           0.0000000000
     57127     10937  TIP3      H2            -10.8563756080       15.1180048001      -29.9493875163  TIP3      10737           0.0000000000
     57128     10938  TIP3      OH2            -3.9452349209       15.1579203348      -26.4276577059  TIP3      10738           0.0000000000
     57129     10938  TIP3      H1             -4.1265737612       14.3843290823      -27.0044140045  TIP3      10738           0.0000000000
     57130     10938  TIP3      H2             -4.0116939059       15.8881721681      -27.0733311517  TIP3      10738           0.0000000000
     57131     10939  TIP3      OH2           -17.7275261819       15.3179487180      -30.5487973661  TIP3      10739           0.0000000000
     57132     10939  TIP3      H1            -17.9741854318       15.5738669086      -29.6478411589  TIP3      10739           0.0000000000
     57133     10939  TIP3      H2            -16.9415698148       14.7546057347      -30.3924691358  TIP3      10739           0.0000000000
     57134     10940  TIP3      OH2             9.6839172448        7.7806359277      -24.3043880986  TIP3      10740           0.0000000000
     57135     10940  TIP3      H1              9.7446747716        8.7519216890      -24.4471202973  TIP3      10740           0.0000000000
     57136     10940  TIP3      H2              9.0525386870        7.5154400657      -24.9959537049  TIP3      10740           0.0000000000
     57137     10941  TIP3      OH2            12.2836054943       10.0043186927      -22.5966857692  TIP3      10741           0.0000000000
     57138     10941  TIP3      H1             11.9137157950        9.2322811580      -22.1642775634  TIP3      10741           0.0000000000
     57139     10941  TIP3      H2             12.2955184434       10.6790098150      -21.9163955778  TIP3      10741           0.0000000000
     57140     10942  TIP3      OH2             1.9471625677       11.1075871693      -20.8206054984  TIP3      10742           0.0000000000
     57141     10942  TIP3      H1              1.5839502185       10.2537339439      -21.0883698273  TIP3      10742           0.0000000000
     57142     10942  TIP3      H2              2.8883146031       10.9355054515      -20.6950440331  TIP3      10742           0.0000000000
     57143     10943  TIP3      OH2            -1.4931232597        4.6959387246      -25.3015665652  TIP3      10743           0.0000000000
     57144     10943  TIP3      H1             -1.8778771152        5.5730868893      -25.4194108468  TIP3      10743           0.0000000000
     57145     10943  TIP3      H2             -2.0338474139        4.1746143359      -25.9125740190  TIP3      10743           0.0000000000
     57146     10944  TIP3      OH2            -0.7396970820        6.9701092263      -23.1727076251  TIP3      10744           0.0000000000
     57147     10944  TIP3      H1             -0.5347946474        6.1172311509      -22.7246351517  TIP3      10744           0.0000000000
     57148     10944  TIP3      H2             -0.0505315116        6.9954134425      -23.8458724924  TIP3      10744           0.0000000000
     57149     10945  TIP3      OH2             9.3691297455       15.0756376546      -22.3341266819  TIP3      10745           0.0000000000
     57150     10945  TIP3      H1             10.0551773704       14.4501624225      -22.6522124447  TIP3      10745           0.0000000000
     57151     10945  TIP3      H2              9.3019804895       14.8558855070      -21.4074914522  TIP3      10745           0.0000000000
     57152     10946  TIP3      OH2             3.3732816170        1.9792981146      -22.8798512165  TIP3      10746           0.0000000000
     57153     10946  TIP3      H1              3.3258840103        2.8424486908      -23.3373818129  TIP3      10746           0.0000000000
     57154     10946  TIP3      H2              2.8286699197        1.4275436420      -23.4864863554  TIP3      10746           0.0000000000
     57155     10947  TIP3      OH2            11.0084781978        2.0400664799      -24.5000644008  TIP3      10747           0.0000000000
     57156     10947  TIP3      H1             11.6765821336        1.7695514587      -23.8342797810  TIP3      10747           0.0000000000
     57157     10947  TIP3      H2             11.5458440524        2.6446625310      -25.0417867476  TIP3      10747           0.0000000000
     57158     10948  TIP3      OH2            -0.0614637347        4.4181215895      -22.1962950201  TIP3      10748           0.0000000000
     57159     10948  TIP3      H1              0.5432960401        3.8589262472      -21.6786600801  TIP3      10748           0.0000000000
     57160     10948  TIP3      H2              0.0006153204        4.0281448084      -23.0801123667  TIP3      10748           0.0000000000
     57161     10949  TIP3      OH2             9.4505586335       10.3694322906      -25.2569029473  TIP3      10749           0.0000000000
     57162     10949  TIP3      H1              9.1925161132       10.0666419707      -26.1405347347  TIP3      10749           0.0000000000
     57163     10949  TIP3      H2              9.1484969693       11.3037358195      -25.2474380751  TIP3      10749           0.0000000000
     57164     10950  TIP3      OH2            12.8347329968        1.4002384762      -22.5242292728  TIP3      10750           0.0000000000
     57165     10950  TIP3      H1             12.6237386189        0.7110629641      -21.9013932684  TIP3      10750           0.0000000000
     57166     10950  TIP3      H2             13.5099342231        1.8562094215      -21.9884312401  TIP3      10750           0.0000000000
     57167     10951  TIP3      OH2            -0.8943555794       10.1371207330      -26.9874169318  TIP3      10751           0.0000000000
     57168     10951  TIP3      H1             -0.9845261579       10.4920399319      -27.8899202693  TIP3      10751           0.0000000000
     57169     10951  TIP3      H2             -0.6927453707       10.9618762884      -26.4954827774  TIP3      10751           0.0000000000
     57170     10952  TIP3      OH2            11.1267316523       13.5629824569      -23.5875782900  TIP3      10752           0.0000000000
     57171     10952  TIP3      H1             11.4970020882       12.8740256113      -24.1814404040  TIP3      10752           0.0000000000
     57172     10952  TIP3      H2             11.4754654902       14.3777254157      -24.0185083118  TIP3      10752           0.0000000000
     57173     10953  TIP3      OH2            12.2797632437       11.5213828636      -25.0825932274  TIP3      10753           0.0000000000
     57174     10953  TIP3      H1             11.9909003789       10.8471064752      -25.7265849745  TIP3      10753           0.0000000000
     57175     10953  TIP3      H2             12.3197152254       10.9910127718      -24.2710703421  TIP3      10753           0.0000000000
     57176     10954  TIP3      OH2             8.4051118318        7.0072774275      -26.8365163492  TIP3      10754           0.0000000000
     57177     10954  TIP3      H1              7.7096314690        7.5756521873      -27.2084390085  TIP3      10754           0.0000000000
     57178     10954  TIP3      H2              9.1097397331        7.0956273237      -27.5064471686  TIP3      10754           0.0000000000
     57179     10955  TIP3      OH2             8.4871266174        5.5738006731      -29.8504110885  TIP3      10755           0.0000000000
     57180     10955  TIP3      H1              9.1919718550        5.5546420373      -29.1856398229  TIP3      10755           0.0000000000
     57181     10955  TIP3      H2              8.7927262737        4.8540843518      -30.4174768976  TIP3      10755           0.0000000000
     57182     10956  TIP3      OH2            11.8555657170        7.2173862227      -25.9421449944  TIP3      10756           0.0000000000
     57183     10956  TIP3      H1             11.1120697462        7.4405531740      -25.3371260242  TIP3      10756           0.0000000000
     57184     10956  TIP3      H2             12.3342101115        6.5370296212      -25.4360667910  TIP3      10756           0.0000000000
     57185     10957  TIP3      OH2             3.4916255363        7.8694503770      -23.9856579032  TIP3      10757           0.0000000000
     57186     10957  TIP3      H1              3.1223299279        7.5200507597      -24.8366070238  TIP3      10757           0.0000000000
     57187     10957  TIP3      H2              4.0638773639        7.1237052647      -23.7800767147  TIP3      10757           0.0000000000
     57188     10958  TIP3      OH2            10.7296238714        6.4202538383      -28.2744772371  TIP3      10758           0.0000000000
     57189     10958  TIP3      H1             11.2905305347        6.5876846361      -27.4787754722  TIP3      10758           0.0000000000
     57190     10958  TIP3      H2             11.1835091572        6.9115686779      -28.9964607038  TIP3      10758           0.0000000000
     57191     10959  TIP3      OH2             8.3493997039       13.0921352378      -24.7223778342  TIP3      10759           0.0000000000
     57192     10959  TIP3      H1              8.9116656343       13.4622396916      -24.0384789119  TIP3      10759           0.0000000000
     57193     10959  TIP3      H2              7.8827772658       13.8889709890      -25.0474006444  TIP3      10759           0.0000000000
     57194     10960  TIP3      OH2            14.4530734596       -1.8505112832      -28.3626425363  TIP3      10760           0.0000000000
     57195     10960  TIP3      H1             13.5042750734       -1.7356717584      -28.1276872768  TIP3      10760           0.0000000000
     57196     10960  TIP3      H2             14.6544960776       -1.0125656312      -28.8118283910  TIP3      10760           0.0000000000
     57197     10961  TIP3      OH2             2.4197099593        6.9102610908      -26.3877750438  TIP3      10761           0.0000000000
     57198     10961  TIP3      H1              2.1376941288        7.6743268785      -26.9350824807  TIP3      10761           0.0000000000
     57199     10961  TIP3      H2              1.7926381361        6.2256718971      -26.6426911017  TIP3      10761           0.0000000000
     57200     10962  TIP3      OH2            15.5654048805       12.4988986933      -30.0102411184  TIP3      10762           0.0000000000
     57201     10962  TIP3      H1             15.7354222548       13.4425995055      -29.8492206807  TIP3      10762           0.0000000000
     57202     10962  TIP3      H2             16.4892011763       12.1849756263      -30.0226184245  TIP3      10762           0.0000000000
     57203     10963  TIP3      OH2             8.4500509270       16.1769744133      -26.7116852121  TIP3      10763           0.0000000000
     57204     10963  TIP3      H1              7.8013176026       15.9588691031      -27.3995896739  TIP3      10763           0.0000000000
     57205     10963  TIP3      H2              7.9601697396       16.8510258743      -26.1958333368  TIP3      10763           0.0000000000
     57206     10964  TIP3      OH2             1.5586175909       14.9270266132      -24.5701418502  TIP3      10764           0.0000000000
     57207     10964  TIP3      H1              1.7188854753       14.5300569266      -23.6991842912  TIP3      10764           0.0000000000
     57208     10964  TIP3      H2              0.7111676062       14.5328102037      -24.8158323239  TIP3      10764           0.0000000000
     57209     10965  TIP3      OH2            10.9729979591       15.2581263718      -29.4072326579  TIP3      10765           0.0000000000
     57210     10965  TIP3      H1             11.4383027275       14.5050072070      -29.8345282447  TIP3      10765           0.0000000000
     57211     10965  TIP3      H2             11.0012968938       15.0108087783      -28.4542228820  TIP3      10765           0.0000000000
     57212     10966  TIP3      OH2            10.7745241614       15.1248963558      -26.6745928305  TIP3      10766           0.0000000000
     57213     10966  TIP3      H1              9.8056100658       15.3247472222      -26.5323630953  TIP3      10766           0.0000000000
     57214     10966  TIP3      H2             10.8886066392       14.4292595597      -26.0252940392  TIP3      10766           0.0000000000
     57215     10967  TIP3      OH2            12.1852402161        7.4402763627      -30.4506338696  TIP3      10767           0.0000000000
     57216     10967  TIP3      H1             12.1576675228        7.2564862004      -31.4179664540  TIP3      10767           0.0000000000
     57217     10967  TIP3      H2             13.0394585087        7.8926723128      -30.4056863096  TIP3      10767           0.0000000000
     57218     10968  TIP3      OH2             7.7746877185        1.3708594562      -29.9462290772  TIP3      10768           0.0000000000
     57219     10968  TIP3      H1              7.4599840274        1.3069428149      -29.0258903074  TIP3      10768           0.0000000000
     57220     10968  TIP3      H2              7.4667435642        0.4939900168      -30.2535803114  TIP3      10768           0.0000000000
     57221     10969  TIP3      OH2             3.5356383021        4.2355443709      -24.5391750741  TIP3      10769           0.0000000000
     57222     10969  TIP3      H1              2.6125087517        3.9289746952      -24.6331612390  TIP3      10769           0.0000000000
     57223     10969  TIP3      H2              3.9263440685        3.9151062599      -25.3714396504  TIP3      10769           0.0000000000
     57224     10970  TIP3      OH2             9.0687050879        4.7201062826      -25.6961969560  TIP3      10770           0.0000000000
     57225     10970  TIP3      H1              8.6730559668        5.5262436076      -26.0903782753  TIP3      10770           0.0000000000
     57226     10970  TIP3      H2              9.7550790744        4.5362545225      -26.3562351210  TIP3      10770           0.0000000000
     57227     10971  TIP3      OH2            10.0745123236        4.1944604367      -22.9028561338  TIP3      10771           0.0000000000
     57228     10971  TIP3      H1              9.8224276287        4.7686770021      -23.6390365435  TIP3      10771           0.0000000000
     57229     10971  TIP3      H2             10.2341559391        3.3679942332      -23.3892013601  TIP3      10771           0.0000000000
     57230     10972  TIP3      OH2             4.5851802814        1.7355276303      -30.8286264434  TIP3      10772           0.0000000000
     57231     10972  TIP3      H1              4.1304597050        1.3154252286      -30.0702370678  TIP3      10772           0.0000000000
     57232     10972  TIP3      H2              3.8758885347        2.1680851389      -31.3194448332  TIP3      10772           0.0000000000
     57233     10973  TIP3      OH2            -2.0993291887        1.4532899200      -23.7301648104  TIP3      10773           0.0000000000
     57234     10973  TIP3      H1             -1.4480450531        1.4444496843      -23.0183304524  TIP3      10773           0.0000000000
     57235     10973  TIP3      H2             -1.6591888795        1.0438173662      -24.4979976226  TIP3      10773           0.0000000000
     57236     10974  TIP3      OH2            -0.8631773718        2.1615816286      -28.3534326884  TIP3      10774           0.0000000000
     57237     10974  TIP3      H1             -0.3515686141        2.7755380482      -28.9110887648  TIP3      10774           0.0000000000
     57238     10974  TIP3      H2             -1.5445389939        2.7788433352      -28.0149565922  TIP3      10774           0.0000000000
     57239     10975  TIP3      OH2             6.1272965667        1.7235410848      -23.5298334683  TIP3      10775           0.0000000000
     57240     10975  TIP3      H1              5.1848373945        1.8143346134      -23.2607082536  TIP3      10775           0.0000000000
     57241     10975  TIP3      H2              6.5826139011        1.6948401841      -22.6913600017  TIP3      10775           0.0000000000
     57242     10976  TIP3      OH2             0.9312887833        3.3384513248      -24.6818475231  TIP3      10776           0.0000000000
     57243     10976  TIP3      H1              0.0204455149        3.4615843487      -25.0069152859  TIP3      10776           0.0000000000
     57244     10976  TIP3      H2              1.1963594130        2.4560104868      -25.0000565161  TIP3      10776           0.0000000000
     57245     10977  TIP3      OH2             4.5586940311        3.3533329601      -27.0072993216  TIP3      10777           0.0000000000
     57246     10977  TIP3      H1              5.5124707682        3.4680298265      -26.8343899509  TIP3      10777           0.0000000000
     57247     10977  TIP3      H2              4.3220359767        4.0427735650      -27.6534757394  TIP3      10777           0.0000000000
     57248     10978  TIP3      OH2            10.5969640574        0.9486624590      -20.2741960814  TIP3      10778           0.0000000000
     57249     10978  TIP3      H1              9.9644987625        1.0729744398      -19.5341193432  TIP3      10778           0.0000000000
     57250     10978  TIP3      H2             10.0244823295        0.8545490294      -21.0340551768  TIP3      10778           0.0000000000
     57251     10979  TIP3      OH2             3.2664935764        4.5364926351      -29.4108499959  TIP3      10779           0.0000000000
     57252     10979  TIP3      H1              2.7349351503        4.1546350688      -30.1290467270  TIP3      10779           0.0000000000
     57253     10979  TIP3      H2              4.0881006284        4.7400786206      -29.8843481466  TIP3      10779           0.0000000000
     57254     10980  TIP3      OH2             7.3251037085        4.4605954523      -21.6125360533  TIP3      10780           0.0000000000
     57255     10980  TIP3      H1              8.0183846758        4.0080945494      -22.1231426619  TIP3      10780           0.0000000000
     57256     10980  TIP3      H2              7.3159913485        3.9811792908      -20.7829216899  TIP3      10780           0.0000000000
     57257     10981  TIP3      OH2             2.3992292635        0.6575932229      -25.1632960348  TIP3      10781           0.0000000000
     57258     10981  TIP3      H1              2.0837571646       -0.2666441032      -25.1562602959  TIP3      10781           0.0000000000
     57259     10981  TIP3      H2              3.1930211469        0.5850410411      -25.6981897951  TIP3      10781           0.0000000000
     57260     10982  TIP3      OH2             6.6196048921        9.0447549432      -27.4809771953  TIP3      10782           0.0000000000
     57261     10982  TIP3      H1              5.8143894918        8.6005103480      -27.8321559022  TIP3      10782           0.0000000000
     57262     10982  TIP3      H2              6.3885418535        9.1811081960      -26.5401385117  TIP3      10782           0.0000000000
     57263     10983  TIP3      OH2            10.4442836553        1.8758726709      -29.3150025835  TIP3      10783           0.0000000000
     57264     10983  TIP3      H1              9.4935700822        2.0345180009      -29.4492059038  TIP3      10783           0.0000000000
     57265     10983  TIP3      H2             10.7858926924        2.7294024821      -28.9654557261  TIP3      10783           0.0000000000
     57266     10984  TIP3      OH2            11.1740509378        3.7999196817      -27.7154564856  TIP3      10784           0.0000000000
     57267     10984  TIP3      H1             12.0460453181        3.6781858492      -27.2780721577  TIP3      10784           0.0000000000
     57268     10984  TIP3      H2             11.2807441760        4.6306162623      -28.2044053029  TIP3      10784           0.0000000000
     57269     10985  TIP3      OH2             8.7123869493       10.5272344267      -28.4575263373  TIP3      10785           0.0000000000
     57270     10985  TIP3      H1              8.3734881358       11.3764114532      -28.1102359131  TIP3      10785           0.0000000000
     57271     10985  TIP3      H2              7.9781783728        9.9153703295      -28.2367500381  TIP3      10785           0.0000000000
     57272     10986  TIP3      OH2            16.0967919934        3.9258718831      -27.9075020104  TIP3      10786           0.0000000000
     57273     10986  TIP3      H1             15.5185598029        3.6529214044      -28.6441513259  TIP3      10786           0.0000000000
     57274     10986  TIP3      H2             16.1644115757        4.8790907468      -28.1498677624  TIP3      10786           0.0000000000
     57275     10987  TIP3      OH2            14.3850895470       12.7709867308      -27.4874643472  TIP3      10787           0.0000000000
     57276     10987  TIP3      H1             13.9970915729       11.9355296921      -27.1973609328  TIP3      10787           0.0000000000
     57277     10987  TIP3      H2             14.6988369075       12.5698772953      -28.3836319015  TIP3      10787           0.0000000000
     57278     10988  TIP3      OH2             4.1082652914       11.9435101032      -24.2315499501  TIP3      10788           0.0000000000
     57279     10988  TIP3      H1              4.6060986209       12.7251359587      -24.5474336919  TIP3      10788           0.0000000000
     57280     10988  TIP3      H2              3.2470611659       12.1237420172      -24.6373830824  TIP3      10788           0.0000000000
     57281     10989  TIP3      OH2            -0.1473907295        6.7610177081      -29.7357420751  TIP3      10789           0.0000000000
     57282     10989  TIP3      H1              0.4563647399        7.4092228006      -29.3275953473  TIP3      10789           0.0000000000
     57283     10989  TIP3      H2             -1.0252227742        7.0762281368      -29.4757340329  TIP3      10789           0.0000000000
     57284     10990  TIP3      OH2             5.5318812557        9.5850614083      -24.7447751741  TIP3      10790           0.0000000000
     57285     10990  TIP3      H1              5.2219419747       10.5094159418      -24.6992689330  TIP3      10790           0.0000000000
     57286     10990  TIP3      H2              4.7628578474        9.1240166026      -24.3761177776  TIP3      10790           0.0000000000
     57287     10991  TIP3      OH2             4.0796587025       14.4653082316      -25.2238995676  TIP3      10791           0.0000000000
     57288     10991  TIP3      H1              3.1539878515       14.7533636990      -25.1539742656  TIP3      10791           0.0000000000
     57289     10991  TIP3      H2              4.5946459767       15.2824985514      -24.9748177956  TIP3      10791           0.0000000000
     57290     10992  TIP3      OH2            11.8280436274       10.8428693001      -29.6618821598  TIP3      10792           0.0000000000
     57291     10992  TIP3      H1             12.1230987312       10.3641652898      -28.8624539730  TIP3      10792           0.0000000000
     57292     10992  TIP3      H2             10.8747895896       10.6550529651      -29.5877120491  TIP3      10792           0.0000000000
     57293     10993  TIP3      OH2            16.2909893669       15.1904993876      -29.4122557344  TIP3      10793           0.0000000000
     57294     10993  TIP3      H1             16.9786876951       15.8555546005      -29.6191247418  TIP3      10793           0.0000000000
     57295     10993  TIP3      H2             15.5758119484       15.8016349220      -29.1291018652  TIP3      10793           0.0000000000
     57296     10994  TIP3      OH2            12.6051566297        9.4671137182      -27.4257495304  TIP3      10794           0.0000000000
     57297     10994  TIP3      H1             12.3669348105        8.6807194612      -26.8895260336  TIP3      10794           0.0000000000
     57298     10994  TIP3      H2             13.5571394539        9.5153592305      -27.2481597124  TIP3      10794           0.0000000000
     57299     10995  TIP3      OH2             5.9560324710       11.9094287041      -31.1700031935  TIP3      10795           0.0000000000
     57300     10995  TIP3      H1              6.0537890534       11.1467639184      -31.7628502223  TIP3      10795           0.0000000000
     57301     10995  TIP3      H2              5.5109031017       11.4798293475      -30.4082177367  TIP3      10795           0.0000000000
     57302     10996  TIP3      OH2             4.7055478464       11.4398998464      -28.7061437690  TIP3      10796           0.0000000000
     57303     10996  TIP3      H1              5.0007987213       10.9263534203      -27.9432320440  TIP3      10796           0.0000000000
     57304     10996  TIP3      H2              4.8249114631       12.3681470902      -28.3895868285  TIP3      10796           0.0000000000
     57305     10997  TIP3      OH2             1.2711104710        8.6851749078      -28.2402252114  TIP3      10797           0.0000000000
     57306     10997  TIP3      H1              0.5809355088        9.0771603636      -27.6737075207  TIP3      10797           0.0000000000
     57307     10997  TIP3      H2              1.7777988899        9.4641568025      -28.5331221642  TIP3      10797           0.0000000000
     57308     10998  TIP3      OH2             9.8310439575        0.9457270919      -26.8234328939  TIP3      10798           0.0000000000
     57309     10998  TIP3      H1             10.0689423377        1.3995970750      -27.6544468890  TIP3      10798           0.0000000000
     57310     10998  TIP3      H2             10.4167834488        1.3829756767      -26.1908624740  TIP3      10798           0.0000000000
     57311     10999  TIP3      OH2             7.5231058050       13.0734992399      -28.0592175150  TIP3      10799           0.0000000000
     57312     10999  TIP3      H1              6.7239241137       13.6250842857      -27.9439836273  TIP3      10799           0.0000000000
     57313     10999  TIP3      H2              8.0763916591       13.6673694669      -28.5873370297  TIP3      10799           0.0000000000
     57314     11000  TIP3      OH2             7.0872933849        2.6822181794      -26.0250846069  TIP3      10800           0.0000000000
     57315     11000  TIP3      H1              7.8548089504        3.2821212764      -25.9583147407  TIP3      10800           0.0000000000
     57316     11000  TIP3      H2              6.8159321027        2.5772443980      -25.0965145074  TIP3      10800           0.0000000000
     57317     11001  TIP3      OH2             7.9472952226       -0.2392170042      -25.0898048241  TIP3      10801           0.0000000000
     57318     11001  TIP3      H1              7.6002790557        0.4606739948      -24.5209155277  TIP3      10801           0.0000000000
     57319     11001  TIP3      H2              8.6137114419        0.2881745100      -25.5975570893  TIP3      10801           0.0000000000
     57320     11002  TIP3      OH2             4.9219738722       14.1294599075      -28.0017970881  TIP3      10802           0.0000000000
     57321     11002  TIP3      H1              5.0260159755       14.9495589424      -28.5401070950  TIP3      10802           0.0000000000
     57322     11002  TIP3      H2              4.6850435682       14.5001867626      -27.1245173736  TIP3      10802           0.0000000000
     57323     11003  TIP3      OH2             3.5796332945        0.8598538434      -28.4161159217  TIP3      10803           0.0000000000
     57324     11003  TIP3      H1              3.5309755917        1.7555171586      -28.0228976222  TIP3      10803           0.0000000000
     57325     11003  TIP3      H2              4.4879816636        0.6115732479      -28.1526603126  TIP3      10803           0.0000000000
     57326     11004  TIP3      OH2            12.4713853457        5.3331243981      -22.1086304358  TIP3      10804           0.0000000000
     57327     11004  TIP3      H1             11.5850875498        4.9412844241      -22.2009812333  TIP3      10804           0.0000000000
     57328     11004  TIP3      H2             12.8319864331        4.7772945950      -21.3914350320  TIP3      10804           0.0000000000
     57329     11005  TIP3      OH2             1.8115413094       11.2959710276      -29.3760871171  TIP3      10805           0.0000000000
     57330     11005  TIP3      H1              2.4808579152       11.9211582049      -29.0582351266  TIP3      10805           0.0000000000
     57331     11005  TIP3      H2              2.3379368645       10.8334190419      -30.0586810882  TIP3      10805           0.0000000000
     57332     11006  TIP3      OH2             0.1616823749        3.9645158239      -30.2579559952  TIP3      10806           0.0000000000
     57333     11006  TIP3      H1              0.1852564331        4.9169352095      -30.0286239824  TIP3      10806           0.0000000000
     57334     11006  TIP3      H2             -0.7418709599        3.7971103177      -30.5335918468  TIP3      10806           0.0000000000
     57335     11007  TIP3      OH2            13.5362564717       14.5365565168      -20.4415499145  TIP3      10807           0.0000000000
     57336     11007  TIP3      H1             13.3467479803       15.3662224727      -20.9260889873  TIP3      10807           0.0000000000
     57337     11007  TIP3      H2             14.3923101917       14.7260391682      -20.0347789477  TIP3      10807           0.0000000000
     57338     11008  TIP3      OH2            -0.0844675562       12.6657298153      -25.3268448178  TIP3      10808           0.0000000000
     57339     11008  TIP3      H1             -0.9095655656       13.1629082313      -25.4143894433  TIP3      10808           0.0000000000
     57340     11008  TIP3      H2              0.4169981672       13.1223281452      -26.0232502351  TIP3      10808           0.0000000000
     57341     11009  TIP3      OH2             7.9473517868       13.7578665919      -31.0564205440  TIP3      10809           0.0000000000
     57342     11009  TIP3      H1              7.2570450948       13.0956125291      -30.8293416613  TIP3      10809           0.0000000000
     57343     11009  TIP3      H2              8.6709226433       13.1611862260      -31.2955474131  TIP3      10809           0.0000000000
     57344     11010  TIP3      OH2            12.5083503323       13.5033684381      -30.8640606503  TIP3      10810           0.0000000000
     57345     11010  TIP3      H1             12.8044132238       12.7283422551      -30.3593581149  TIP3      10810           0.0000000000
     57346     11010  TIP3      H2             13.2719039084       13.7284841194      -31.4153855149  TIP3      10810           0.0000000000
     57347     11011  TIP3      OH2             3.3959149827        9.4467186259      -31.0446706035  TIP3      10811           0.0000000000
     57348     11011  TIP3      H1              3.5351033505        8.6859088072      -30.4603047288  TIP3      10811           0.0000000000
     57349     11011  TIP3      H2              4.1440418714        9.3280251301      -31.6616336448  TIP3      10811           0.0000000000
     57350     11012  TIP3      OH2             8.8261229362       10.5555757188      -31.2664386214  TIP3      10812           0.0000000000
     57351     11012  TIP3      H1              8.5540946636       10.6360322910      -30.3386524552  TIP3      10812           0.0000000000
     57352     11012  TIP3      H2              8.6367533130        9.5980263919      -31.4115981958  TIP3      10812           0.0000000000
     57353     11013  TIP3      OH2             4.6082096133        7.4622485659      -28.6174446992  TIP3      10813           0.0000000000
     57354     11013  TIP3      H1              4.1015946646        6.9165774618      -27.9991167359  TIP3      10813           0.0000000000
     57355     11013  TIP3      H2              4.9017831275        6.7913995748      -29.2742295560  TIP3      10813           0.0000000000
     57356     11014  TIP3      OH2             5.6740869173        5.6865084740      -30.4183403202  TIP3      10814           0.0000000000
     57357     11014  TIP3      H1              5.5252970544        5.5968477899      -31.3817640098  TIP3      10814           0.0000000000
     57358     11014  TIP3      H2              6.6500539117        5.7384833143      -30.3499275430  TIP3      10814           0.0000000000
     57359     11015  TIP3      OH2            14.9957694296        8.0067391220      -31.0003951979  TIP3      10815           0.0000000000
     57360     11015  TIP3      H1             14.8132472007        7.6262083928      -31.8760667947  TIP3      10815           0.0000000000
     57361     11015  TIP3      H2             15.0968576013        8.9674701741      -31.1949424492  TIP3      10815           0.0000000000
     57362     11016  TIP3      OH2             5.5077245316       16.3767057705      -29.3541850250  TIP3      10816           0.0000000000
     57363     11016  TIP3      H1              6.4734897822       16.4693938255      -29.2532305637  TIP3      10816           0.0000000000
     57364     11016  TIP3      H2              5.3727866095       16.9899536074      -30.0864481423  TIP3      10816           0.0000000000
     57365     11017  TIP3      OH2            -0.9422973332       10.9356088104      -29.8574283142  TIP3      10817           0.0000000000
     57366     11017  TIP3      H1              0.0258163677       11.0683022112      -29.6895420329  TIP3      10817           0.0000000000
     57367     11017  TIP3      H2             -0.8626077867       10.3218473552      -30.6251517317  TIP3      10817           0.0000000000
     57368     11018  TIP3      OH2            -2.1447113287       16.3465961083      -24.9010689221  TIP3      10818           0.0000000000
     57369     11018  TIP3      H1             -2.8575948391       15.8639592363      -25.3789273310  TIP3      10818           0.0000000000
     57370     11018  TIP3      H2             -1.8649935033       15.6904241631      -24.2423533048  TIP3      10818           0.0000000000
     57371     11019  TIP3      OH2            -1.2931380913       14.4886311287      -23.0568570756  TIP3      10819           0.0000000000
     57372     11019  TIP3      H1             -1.7338890361       13.6583458913      -22.8932915875  TIP3      10819           0.0000000000
     57373     11019  TIP3      H2             -1.1414387378       14.8733622624      -22.1676525796  TIP3      10819           0.0000000000
     57374     11020  TIP3      OH2            15.5391117149        8.9237654515      -27.0430480366  TIP3      10820           0.0000000000
     57375     11020  TIP3      H1             16.4019808185        9.3226460100      -26.8454962467  TIP3      10820           0.0000000000
     57376     11020  TIP3      H2             15.5212069780        8.2049942070      -26.3701416057  TIP3      10820           0.0000000000
     57377     11021  TIP3      OH2            15.9068855550        6.9923829712      -25.1643651248  TIP3      10821           0.0000000000
     57378     11021  TIP3      H1             15.1605930145        6.4989005177      -24.7635305605  TIP3      10821           0.0000000000
     57379     11021  TIP3      H2             16.4987888806        7.1392270235      -24.3911842777  TIP3      10821           0.0000000000
     57380     11022  TIP3      OH2            16.1948629981        6.8242372431      -28.7712964459  TIP3      10822           0.0000000000
     57381     11022  TIP3      H1             15.6282231343        7.1656610928      -29.4951603872  TIP3      10822           0.0000000000
     57382     11022  TIP3      H2             16.0967316952        7.5368136011      -28.1118725178  TIP3      10822           0.0000000000
     57383     11023  TIP3      OH2            14.5686249393        4.0519036447      -30.2576534691  TIP3      10823           0.0000000000
     57384     11023  TIP3      H1             14.6468864748        4.7171310795      -30.9533660019  TIP3      10823           0.0000000000
     57385     11023  TIP3      H2             14.3831777580        3.2295747814      -30.7546385933  TIP3      10823           0.0000000000
     57386     11024  TIP3      OH2            13.7064134473        5.4730206142      -24.5865988858  TIP3      10824           0.0000000000
     57387     11024  TIP3      H1             13.5760060370        4.5164041370      -24.6284047431  TIP3      10824           0.0000000000
     57388     11024  TIP3      H2             13.3735204489        5.6735502935      -23.6909029024  TIP3      10824           0.0000000000
     57389     11025  TIP3      OH2            -1.2731794919        7.6146018544      -20.5574513984  TIP3      10825           0.0000000000
     57390     11025  TIP3      H1             -1.0994695340        7.4250359012      -21.4936407427  TIP3      10825           0.0000000000
     57391     11025  TIP3      H2             -0.4448362091        7.3702387956      -20.1328509380  TIP3      10825           0.0000000000
     57392     11026  TIP3      OH2            13.8168760339        1.5273956441      -31.1211715927  TIP3      10826           0.0000000000
     57393     11026  TIP3      H1             14.4032884624        1.0862284963      -30.4780081894  TIP3      10826           0.0000000000
     57394     11026  TIP3      H2             12.9504994755        1.1138460122      -30.9736567503  TIP3      10826           0.0000000000
     57395     11027  TIP3      OH2            13.3582685753        3.0569646692      -26.1685579923  TIP3      10827           0.0000000000
     57396     11027  TIP3      H1             13.6788412724        2.1359225465      -26.0279027554  TIP3      10827           0.0000000000
     57397     11027  TIP3      H2             14.1746005101        3.4653906812      -26.4949146890  TIP3      10827           0.0000000000
     57398     11028  TIP3      OH2            14.0561495196        0.3456150865      -26.0865734091  TIP3      10828           0.0000000000
     57399     11028  TIP3      H1             14.2442677623       -0.1191070929      -25.2422938190  TIP3      10828           0.0000000000
     57400     11028  TIP3      H2             13.4626509196       -0.2854723854      -26.5422650541  TIP3      10828           0.0000000000
     57401     11029  TIP3      OH2            -2.2663591714        4.2085755722      -20.5510485265  TIP3      10829           0.0000000000
     57402     11029  TIP3      H1             -1.6457796738        3.8782899222      -21.2148890302  TIP3      10829           0.0000000000
     57403     11029  TIP3      H2             -1.7100048426        4.8892772442      -20.1743958902  TIP3      10829           0.0000000000
     57404     11030  TIP3      OH2            15.8869740803        0.3591707015      -29.5068105058  TIP3      10830           0.0000000000
     57405     11030  TIP3      H1             16.2707647522       -0.3346957406      -30.0886264874  TIP3      10830           0.0000000000
     57406     11030  TIP3      H2             16.5649837742        1.0452666347      -29.5159442928  TIP3      10830           0.0000000000
     57407     11031  TIP3      OH2            -1.8172922292        0.4404001885      -26.3882496482  TIP3      10831           0.0000000000
     57408     11031  TIP3      H1             -2.7582551400        0.5755778286      -26.5766362328  TIP3      10831           0.0000000000
     57409     11031  TIP3      H2             -1.3969802130        0.8865586225      -27.1437686888  TIP3      10831           0.0000000000
     57410     11032  TIP3      OH2            12.9420118040       15.3061477845      -24.4548620707  TIP3      10832           0.0000000000
     57411     11032  TIP3      H1             13.6176590639       15.0984615770      -25.1302272515  TIP3      10832           0.0000000000
     57412     11032  TIP3      H2             13.4000679305       15.9211048288      -23.8581623474  TIP3      10832           0.0000000000
     57413     11033  TIP3      OH2             0.0918701360       15.0439129110      -20.7750750240  TIP3      10833           0.0000000000
     57414     11033  TIP3      H1              0.1222421078       14.7878926640      -19.8474635602  TIP3      10833           0.0000000000
     57415     11033  TIP3      H2              0.9736898048       14.8381727193      -21.1266296660  TIP3      10833           0.0000000000
     57416     11034  TIP3      OH2             2.2010937475       13.7981693985      -22.0346986209  TIP3      10834           0.0000000000
     57417     11034  TIP3      H1              2.1197594447       12.8417914421      -21.9106306569  TIP3      10834           0.0000000000
     57418     11034  TIP3      H2              3.0578668086       13.9920298298      -21.6359785522  TIP3      10834           0.0000000000
     57419     11035  TIP3      OH2            13.5271744755       -1.9391257108      -22.0665139788  TIP3      10835           0.0000000000
     57420     11035  TIP3      H1             14.2352247427       -1.3725417048      -22.4790818328  TIP3      10835           0.0000000000
     57421     11035  TIP3      H2             12.7540649791       -1.6221024750      -22.5190668777  TIP3      10835           0.0000000000
     57422     11036  TIP3      OH2            15.0888327946       -0.6851686810      -23.8015449308  TIP3      10836           0.0000000000
     57423     11036  TIP3      H1             15.7818729647       -1.2867766843      -24.1423539568  TIP3      10836           0.0000000000
     57424     11036  TIP3      H2             15.5906403069        0.1391203260      -23.6116540960  TIP3      10836           0.0000000000
     57425     11037  TIP3      OH2             0.6887572321       -1.3401907191      -24.3400438770  TIP3      10837           0.0000000000
     57426     11037  TIP3      H1             -0.1476323986       -1.5840734436      -24.7541888255  TIP3      10837           0.0000000000
     57427     11037  TIP3      H2              1.1199336535       -2.2029743209      -24.2125215552  TIP3      10837           0.0000000000
     57428     11038  TIP3      OH2            -0.5721881528       -1.6163393175      -28.5108194942  TIP3      10838           0.0000000000
     57429     11038  TIP3      H1             -0.0780785768       -0.9678537430      -29.0436151862  TIP3      10838           0.0000000000
     57430     11038  TIP3      H2             -1.1309290180       -1.0441339536      -27.9607704491  TIP3      10838           0.0000000000
     57431     11039  TIP3      OH2             5.1264298653       -1.4042217269      -24.4041095712  TIP3      10839           0.0000000000
     57432     11039  TIP3      H1              6.0423388679       -1.1016396931      -24.5117033197  TIP3      10839           0.0000000000
     57433     11039  TIP3      H2              5.0639227030       -1.6907874947      -23.4978062705  TIP3      10839           0.0000000000
     57434     11040  TIP3      OH2            10.6716004055       -1.3879854811      -22.9491174893  TIP3      10840           0.0000000000
     57435     11040  TIP3      H1             10.7740058934       -1.3458761204      -23.9162293129  TIP3      10840           0.0000000000
     57436     11040  TIP3      H2             10.3164703192       -2.3005823136      -22.8115467116  TIP3      10840           0.0000000000
     57437     11041  TIP3      OH2            12.1162181138       -1.4015764614      -27.1421242065  TIP3      10841           0.0000000000
     57438     11041  TIP3      H1             11.3655193514       -0.8041357083      -27.2807506219  TIP3      10841           0.0000000000
     57439     11041  TIP3      H2             11.6708847341       -2.2496238849      -26.9040951222  TIP3      10841           0.0000000000
     57440     11042  TIP3      OH2            -0.6556835606       14.3293965944      -27.4735477950  TIP3      10842           0.0000000000
     57441     11042  TIP3      H1             -1.3114579215       14.3149535997      -28.1953782252  TIP3      10842           0.0000000000
     57442     11042  TIP3      H2             -0.6560655704       15.2846232431      -27.2987887518  TIP3      10842           0.0000000000
     57443     11043  TIP3      OH2             1.2637562239        0.3393056591      -30.0230521553  TIP3      10843           0.0000000000
     57444     11043  TIP3      H1              1.7939671900       -0.2965764489      -30.5293892174  TIP3      10843           0.0000000000
     57445     11043  TIP3      H2              1.9192330224        0.6463586414      -29.3669419936  TIP3      10843           0.0000000000
     57446     11044  TIP3      OH2             6.2850542769        0.5706534552      -27.5916490750  TIP3      10844           0.0000000000
     57447     11044  TIP3      H1              6.5552236701       -0.0123883067      -26.8677633367  TIP3      10844           0.0000000000
     57448     11044  TIP3      H2              6.3528862199        1.4363622754      -27.1297438574  TIP3      10844           0.0000000000
     57449     11045  TIP3      OH2             8.1701448113       15.6572007175      -29.2440311372  TIP3      10845           0.0000000000
     57450     11045  TIP3      H1              9.1150709573       15.8583151664      -29.3523262146  TIP3      10845           0.0000000000
     57451     11045  TIP3      H2              8.0068956179       15.0914597239      -30.0142483928  TIP3      10845           0.0000000000
     57452     11046  TIP3      OH2            14.8956186943       15.1435795213      -26.4191022369  TIP3      10846           0.0000000000
     57453     11046  TIP3      H1             14.7235849053       14.3638806102      -27.0004185389  TIP3      10846           0.0000000000
     57454     11046  TIP3      H2             14.8494585439       15.8796744498      -27.0643594478  TIP3      10846           0.0000000000
     57455     11047  TIP3      OH2             1.1362470230       15.3170581451      -30.5448728726  TIP3      10847           0.0000000000
     57456     11047  TIP3      H1              0.8830610252       15.5815730863      -29.6470561974  TIP3      10847           0.0000000000
     57457     11047  TIP3      H2              1.9200064024       14.7530367397      -30.3865555726  TIP3      10847           0.0000000000
     57458     11048  TIP3      OH2            28.5485476507        7.7875898882      -24.3271187227  TIP3      10848           0.0000000000
     57459     11048  TIP3      H1             28.6175756999        8.7519483649      -24.4774493508  TIP3      10848           0.0000000000
     57460     11048  TIP3      H2             27.9001327935        7.5253878072      -25.0053761378  TIP3      10848           0.0000000000
     57461     11049  TIP3      OH2            27.3522520792        7.0359491430      -20.8274341853  TIP3      10849           0.0000000000
     57462     11049  TIP3      H1             27.5236102397        6.3865376799      -20.1214437220  TIP3      10849           0.0000000000
     57463     11049  TIP3      H2             27.2884329147        6.5676205604      -21.6600447046  TIP3      10849           0.0000000000
     57464     11050  TIP3      OH2            17.4006978363        4.6601270914      -25.3290677137  TIP3      10850           0.0000000000
     57465     11050  TIP3      H1             16.9909006294        5.5543737550      -25.3704131853  TIP3      10850           0.0000000000
     57466     11050  TIP3      H2             16.7861106073        4.1835497191      -25.8957846957  TIP3      10850           0.0000000000
     57467     11051  TIP3      OH2            18.0402076705        6.8762998645      -23.2756297740  TIP3      10851           0.0000000000
     57468     11051  TIP3      H1             18.2948699400        6.1449069991      -22.6888295340  TIP3      10851           0.0000000000
     57469     11051  TIP3      H2             18.8245202828        7.0417311104      -23.7989028535  TIP3      10851           0.0000000000
     57470     11052  TIP3      OH2            28.2463677550       15.1165742717      -22.3387330646  TIP3      10852           0.0000000000
     57471     11052  TIP3      H1             28.9240205972       14.4657221881      -22.6543409357  TIP3      10852           0.0000000000
     57472     11052  TIP3      H2             28.1379885196       14.8601497335      -21.4315471788  TIP3      10852           0.0000000000
     57473     11053  TIP3      OH2            28.9549743562        3.8276053322      -20.1230410049  TIP3      10853           0.0000000000
     57474     11053  TIP3      H1             29.2057858183        2.9006733144      -20.1065326258  TIP3      10853           0.0000000000
     57475     11053  TIP3      H2             28.9755362767        4.0405444431      -21.0709669675  TIP3      10853           0.0000000000
     57476     11054  TIP3      OH2            22.0820543283        2.0187766924      -22.8466766154  TIP3      10854           0.0000000000
     57477     11054  TIP3      H1             22.2135689876        2.8373737984      -23.3444183767  TIP3      10854           0.0000000000
     57478     11054  TIP3      H2             21.7736144467        1.3982386447      -23.5172169101  TIP3      10854           0.0000000000
     57479     11055  TIP3      OH2            29.8512150224        2.0886047061      -24.5056594059  TIP3      10855           0.0000000000
     57480     11055  TIP3      H1             30.5083051188        1.7594973877      -23.8467322790  TIP3      10855           0.0000000000
     57481     11055  TIP3      H2             30.4368213645        2.6307955027      -25.0545180751  TIP3      10855           0.0000000000
     57482     11056  TIP3      OH2            18.7354678001        4.3198642200      -22.1369727248  TIP3      10856           0.0000000000
     57483     11056  TIP3      H1             19.4528320715        3.8526198190      -21.7108064474  TIP3      10856           0.0000000000
     57484     11056  TIP3      H2             18.8710156648        4.1067282274      -23.0717787484  TIP3      10856           0.0000000000
     57485     11057  TIP3      OH2            28.2896289139       10.3715828787      -25.2342260494  TIP3      10857           0.0000000000
     57486     11057  TIP3      H1             28.0728985737       10.0745112439      -26.1342051985  TIP3      10857           0.0000000000
     57487     11057  TIP3      H2             28.0033176833       11.3126507205      -25.2707980263  TIP3      10857           0.0000000000
     57488     11058  TIP3      OH2            31.6029551181        1.4870631727      -22.4643843496  TIP3      10858           0.0000000000
     57489     11058  TIP3      H1             31.4843727194        0.6443256730      -22.0051682320  TIP3      10858           0.0000000000
     57490     11058  TIP3      H2             32.3661036051        1.8270425873      -21.9840698599  TIP3      10858           0.0000000000
     57491     11059  TIP3      OH2            18.0707544918       10.1293674126      -27.0024628065  TIP3      10859           0.0000000000
     57492     11059  TIP3      H1             17.8105240054       10.4882633927      -27.8657130905  TIP3      10859           0.0000000000
     57493     11059  TIP3      H2             18.1762321156       10.9488261865      -26.4731629506  TIP3      10859           0.0000000000
     57494     11060  TIP3      OH2            29.8956542972       13.5959962261      -23.6463732424  TIP3      10860           0.0000000000
     57495     11060  TIP3      H1             30.3671197676       12.8951332252      -24.1471704030  TIP3      10860           0.0000000000
     57496     11060  TIP3      H2             30.3591979144       14.3890245724      -24.0125989527  TIP3      10860           0.0000000000
     57497     11061  TIP3      OH2            31.0962757321       11.5251886529      -25.0905386052  TIP3      10861           0.0000000000
     57498     11061  TIP3      H1             30.8611879395       10.8341764111      -25.7344781784  TIP3      10861           0.0000000000
     57499     11061  TIP3      H2             31.2155330375       11.0240092905      -24.2806278982  TIP3      10861           0.0000000000
     57500     11062  TIP3      OH2            27.2622266767        7.0162503305      -26.8330987461  TIP3      10862           0.0000000000
     57501     11062  TIP3      H1             26.5657777490        7.5737307642      -27.2258045552  TIP3      10862           0.0000000000
     57502     11062  TIP3      H2             27.9661364370        7.0954625066      -27.5111126407  TIP3      10862           0.0000000000
     57503     11063  TIP3      OH2            27.3431063207        5.5740229215      -29.8493335493  TIP3      10863           0.0000000000
     57504     11063  TIP3      H1             28.0481356139        5.5557742748      -29.1849761761  TIP3      10863           0.0000000000
     57505     11063  TIP3      H2             27.6493847616        4.8526270406      -30.4139742819  TIP3      10863           0.0000000000
     57506     11064  TIP3      OH2            30.7127089114        7.2284927180      -25.9317682425  TIP3      10864           0.0000000000
     57507     11064  TIP3      H1             29.9565800429        7.4341532803      -25.3350572710  TIP3      10864           0.0000000000
     57508     11064  TIP3      H2             31.1828339586        6.5351106516      -25.4350103463  TIP3      10864           0.0000000000
     57509     11065  TIP3      OH2            22.3684766684        7.8712231723      -23.9981247472  TIP3      10865           0.0000000000
     57510     11065  TIP3      H1             21.9795239411        7.4997879001      -24.8265191177  TIP3      10865           0.0000000000
     57511     11065  TIP3      H2             22.9012268174        7.1261031971      -23.7149480395  TIP3      10865           0.0000000000
     57512     11066  TIP3      OH2            23.8090830356       11.3721305415      -21.4008054699  TIP3      10866           0.0000000000
     57513     11066  TIP3      H1             23.5468864027       10.7655885774      -22.1142463853  TIP3      10866           0.0000000000
     57514     11066  TIP3      H2             24.3744475302       10.8735811845      -20.8278911565  TIP3      10866           0.0000000000
     57515     11067  TIP3      OH2            22.7133812544        6.6099475688      -20.4124280615  TIP3      10867           0.0000000000
     57516     11067  TIP3      H1             23.2493830344        6.8178304690      -21.1671525289  TIP3      10867           0.0000000000
     57517     11067  TIP3      H2             22.9641248321        7.2456690029      -19.7242831139  TIP3      10867           0.0000000000
     57518     11068  TIP3      OH2            29.5870983738        6.4214040684      -28.2706573844  TIP3      10868           0.0000000000
     57519     11068  TIP3      H1             30.1453119169        6.5912291747      -27.4730477660  TIP3      10868           0.0000000000
     57520     11068  TIP3      H2             30.0394593962        6.9118835979      -28.9942244167  TIP3      10868           0.0000000000
     57521     11069  TIP3      OH2            27.2393522321       13.0943694296      -24.7053460179  TIP3      10869           0.0000000000
     57522     11069  TIP3      H1             27.7840585008       13.4899969335      -24.0203125864  TIP3      10869           0.0000000000
     57523     11069  TIP3      H2             26.7607413875       13.8525419407      -25.0821318701  TIP3      10869           0.0000000000
     57524     11070  TIP3      OH2            33.3096812246       -1.8579727089      -28.3772308175  TIP3      10870           0.0000000000
     57525     11070  TIP3      H1             32.3706309304       -1.7351250368      -28.1138209661  TIP3      10870           0.0000000000
     57526     11070  TIP3      H2             33.5210786569       -1.0032897593      -28.7907187851  TIP3      10870           0.0000000000
     57527     11071  TIP3      OH2            21.2782728205        6.9033780581      -26.3786862974  TIP3      10871           0.0000000000
     57528     11071  TIP3      H1             20.9969465315        7.6751316621      -26.9175120256  TIP3      10871           0.0000000000
     57529     11071  TIP3      H2             20.6393575937        6.2285580398      -26.6282406473  TIP3      10871           0.0000000000
     57530     11072  TIP3      OH2            34.4222194920       12.4884183245      -29.9896295556  TIP3      10872           0.0000000000
     57531     11072  TIP3      H1             34.5826752644       13.4376172671      -29.8455939856  TIP3      10872           0.0000000000
     57532     11072  TIP3      H2             35.3533305329       12.1891745006      -30.0274267142  TIP3      10872           0.0000000000
     57533     11073  TIP3      OH2            26.7758120373       16.0538084742      -26.3700213253  TIP3      10873           0.0000000000
     57534     11073  TIP3      H1             26.6715793644       15.9717324981      -27.3338959202  TIP3      10873           0.0000000000
     57535     11073  TIP3      H2             26.7816725327       17.0158545372      -26.2325505682  TIP3      10873           0.0000000000
     57536     11074  TIP3      OH2            20.4394087537       14.9403328404      -24.5757641521  TIP3      10874           0.0000000000
     57537     11074  TIP3      H1             20.5616335486       14.5047202183      -23.6923107902  TIP3      10874           0.0000000000
     57538     11074  TIP3      H2             19.5983989596       14.5216779406      -24.8177127124  TIP3      10874           0.0000000000
     57539     11075  TIP3      OH2            29.8348522255       15.2622556880      -29.4071837645  TIP3      10875           0.0000000000
     57540     11075  TIP3      H1             30.2942904795       14.5058052316      -29.8443237962  TIP3      10875           0.0000000000
     57541     11075  TIP3      H2             29.8746129607       14.9985262897      -28.4644441043  TIP3      10875           0.0000000000
     57542     11076  TIP3      OH2            29.5361735218       15.2013549198      -26.6408370749  TIP3      10876           0.0000000000
     57543     11076  TIP3      H1             28.5783678388       15.2828144792      -26.4623803036  TIP3      10876           0.0000000000
     57544     11076  TIP3      H2             29.7704068999       14.4647419419      -26.0607916020  TIP3      10876           0.0000000000
     57545     11077  TIP3      OH2            31.0261543545        7.4594418008      -30.4600960744  TIP3      10877           0.0000000000
     57546     11077  TIP3      H1             31.0139191239        7.2580323251      -31.4235726189  TIP3      10877           0.0000000000
     57547     11077  TIP3      H2             31.8916464105        7.8898891188      -30.4054278091  TIP3      10877           0.0000000000
     57548     11078  TIP3      OH2            26.6315787967        1.3691742007      -29.9572508361  TIP3      10878           0.0000000000
     57549     11078  TIP3      H1             26.3226932112        1.3072564945      -29.0379623822  TIP3      10878           0.0000000000
     57550     11078  TIP3      H2             26.3230806381        0.4897780606      -30.2555260406  TIP3      10878           0.0000000000
     57551     11079  TIP3      OH2            22.4175762148        4.1909105445      -24.5194590444  TIP3      10879           0.0000000000
     57552     11079  TIP3      H1             21.4700325083        3.9954497621      -24.6260964436  TIP3      10879           0.0000000000
     57553     11079  TIP3      H2             22.7717252894        3.9208600718      -25.3865134053  TIP3      10879           0.0000000000
     57554     11080  TIP3      OH2            27.9152390589        4.7219262547      -25.7024809507  TIP3      10880           0.0000000000
     57555     11080  TIP3      H1             27.5359736791        5.5388713368      -26.1030426320  TIP3      10880           0.0000000000
     57556     11080  TIP3      H2             28.6053292354        4.5376133589      -26.3690094217  TIP3      10880           0.0000000000
     57557     11081  TIP3      OH2            28.8945169516        4.1659719790      -22.9075503608  TIP3      10881           0.0000000000
     57558     11081  TIP3      H1             28.6958784400        4.7346799134      -23.6682437434  TIP3      10881           0.0000000000
     57559     11081  TIP3      H2             29.0971040158        3.3319620434      -23.3849208823  TIP3      10881           0.0000000000
     57560     11082  TIP3      OH2            23.4424961626        1.7348537904      -30.8228602018  TIP3      10882           0.0000000000
     57561     11082  TIP3      H1             22.9827005671        1.3120240191      -30.0707230654  TIP3      10882           0.0000000000
     57562     11082  TIP3      H2             22.7305748790        2.1660348390      -31.3155972271  TIP3      10882           0.0000000000
     57563     11083  TIP3      OH2            16.7446378186        1.4820416774      -23.7541081859  TIP3      10883           0.0000000000
     57564     11083  TIP3      H1             17.3613120037        1.4455238602      -23.0127917880  TIP3      10883           0.0000000000
     57565     11083  TIP3      H2             17.1410995827        1.0399451213      -24.5050512833  TIP3      10883           0.0000000000
     57566     11084  TIP3      OH2            18.0187075058        2.1736340789      -28.2944097813  TIP3      10884           0.0000000000
     57567     11084  TIP3      H1             18.4958067155        2.7673013159      -28.9151340817  TIP3      10884           0.0000000000
     57568     11084  TIP3      H2             17.3014044153        2.7965103437      -28.0429738852  TIP3      10884           0.0000000000
     57569     11085  TIP3      OH2            19.7526307473        3.2534392975      -24.5888700459  TIP3      10885           0.0000000000
     57570     11085  TIP3      H1             18.8990553917        3.5063633658      -25.0095269772  TIP3      10885           0.0000000000
     57571     11085  TIP3      H2             20.1338149148        2.5272337637      -25.0843985856  TIP3      10885           0.0000000000
     57572     11086  TIP3      OH2            23.3962738260        3.3517557669      -26.9956983644  TIP3      10886           0.0000000000
     57573     11086  TIP3      H1             24.3553724544        3.4567745823      -26.8538657885  TIP3      10886           0.0000000000
     57574     11086  TIP3      H2             23.1751578395        4.0376675230      -27.6575647535  TIP3      10886           0.0000000000
     57575     11087  TIP3      OH2            29.3390003550        0.9231314962      -20.1700057396  TIP3      10887           0.0000000000
     57576     11087  TIP3      H1             28.6070642210        1.1198205143      -19.5879975062  TIP3      10887           0.0000000000
     57577     11087  TIP3      H2             28.9129235242        0.7447782293      -21.0351831855  TIP3      10887           0.0000000000
     57578     11088  TIP3      OH2            22.1201271105        4.5327857531      -29.4172602368  TIP3      10888           0.0000000000
     57579     11088  TIP3      H1             21.5884973455        4.1575091255      -30.1407297608  TIP3      10888           0.0000000000
     57580     11088  TIP3      H2             22.9393825304        4.7470040292      -29.8913357681  TIP3      10888           0.0000000000
     57581     11089  TIP3      OH2            21.5137508673        0.6945364644      -25.2144783020  TIP3      10889           0.0000000000
     57582     11089  TIP3      H1             21.3944987298       -0.2571266525      -25.1523176395  TIP3      10889           0.0000000000
     57583     11089  TIP3      H2             22.2542808310        0.6909804170      -25.8422137932  TIP3      10889           0.0000000000
     57584     11090  TIP3      OH2            25.4726256291        9.0538915411      -27.4662278102  TIP3      10890           0.0000000000
     57585     11090  TIP3      H1             24.6727983062        8.6042325256      -27.8242121925  TIP3      10890           0.0000000000
     57586     11090  TIP3      H2             25.2377624297        9.1894140700      -26.5269441494  TIP3      10890           0.0000000000
     57587     11091  TIP3      OH2            29.2977669953        1.8761342301      -29.3105513714  TIP3      10891           0.0000000000
     57588     11091  TIP3      H1             28.3500276950        2.0376374770      -29.4509461918  TIP3      10891           0.0000000000
     57589     11091  TIP3      H2             29.6426137077        2.7298358058      -28.9659987856  TIP3      10891           0.0000000000
     57590     11092  TIP3      OH2            30.0328814964        3.7996959109      -27.7156026076  TIP3      10892           0.0000000000
     57591     11092  TIP3      H1             30.9067651759        3.6779666976      -27.2785328980  TIP3      10892           0.0000000000
     57592     11092  TIP3      H2             30.1366337042        4.6286220439      -28.2048907642  TIP3      10892           0.0000000000
     57593     11093  TIP3      OH2            20.5886144087        8.4209073046      -21.6790669516  TIP3      10893           0.0000000000
     57594     11093  TIP3      H1             21.2596046994        8.3801000002      -22.3705457256  TIP3      10893           0.0000000000
     57595     11093  TIP3      H2             20.6315639745        7.5630123483      -21.2513447925  TIP3      10893           0.0000000000
     57596     11094  TIP3      OH2            27.5726477982       10.5299488152      -28.4470429138  TIP3      10894           0.0000000000
     57597     11094  TIP3      H1             27.2237573994       11.3807609588      -28.1104684070  TIP3      10894           0.0000000000
     57598     11094  TIP3      H2             26.8362966726        9.9170259391      -28.2365982054  TIP3      10894           0.0000000000
     57599     11095  TIP3      OH2            34.9357459878        3.9291730612      -27.9172768809  TIP3      10895           0.0000000000
     57600     11095  TIP3      H1             34.3679790870        3.6456874260      -28.6560262884  TIP3      10895           0.0000000000
     57601     11095  TIP3      H2             35.0097989995        4.8811886302      -28.1648933054  TIP3      10895           0.0000000000
     57602     11096  TIP3      OH2            33.2096414783       12.7677598524      -27.5101658995  TIP3      10896           0.0000000000
     57603     11096  TIP3      H1             32.8589854726       11.9303385322      -27.1881170501  TIP3      10896           0.0000000000
     57604     11096  TIP3      H2             33.5694781623       12.5528088483      -28.3878468834  TIP3      10896           0.0000000000
     57605     11097  TIP3      OH2            22.9590898461       11.9084577137      -24.2912843675  TIP3      10897           0.0000000000
     57606     11097  TIP3      H1             23.4235889242       12.7280926266      -24.5151178005  TIP3      10897           0.0000000000
     57607     11097  TIP3      H2             22.0661168369       12.1259123398      -24.5974104619  TIP3      10897           0.0000000000
     57608     11098  TIP3      OH2            18.7336907055        6.7447894142      -29.7288047428  TIP3      10898           0.0000000000
     57609     11098  TIP3      H1             19.3080235630        7.4260803103      -29.3433639597  TIP3      10898           0.0000000000
     57610     11098  TIP3      H2             17.8399818297        7.0698381538      -29.5048766745  TIP3      10898           0.0000000000
     57611     11099  TIP3      OH2            24.4095761052        9.5789530001      -24.7500502367  TIP3      10899           0.0000000000
     57612     11099  TIP3      H1             24.0644384146       10.4932495238      -24.7009171672  TIP3      10899           0.0000000000
     57613     11099  TIP3      H2             23.6384335518        9.1119081091      -24.3772703456  TIP3      10899           0.0000000000
     57614     11100  TIP3      OH2            23.0513417646       14.5927710426      -25.2448926348  TIP3      10900           0.0000000000
     57615     11100  TIP3      H1             22.0769213297       14.7068164577      -25.1492769967  TIP3      10900           0.0000000000
     57616     11100  TIP3      H2             23.3928989245       15.4422803856      -24.9216521518  TIP3      10900           0.0000000000
     57617     11101  TIP3      OH2            30.6840947019       10.8415076139      -29.6630039806  TIP3      10901           0.0000000000
     57618     11101  TIP3      H1             30.9787729665       10.3655977437      -28.8616494136  TIP3      10901           0.0000000000
     57619     11101  TIP3      H2             29.7307787510       10.6555552743      -29.5868711895  TIP3      10901           0.0000000000
     57620     11102  TIP3      OH2            35.1478995454       15.1908875132      -29.3917234688  TIP3      10902           0.0000000000
     57621     11102  TIP3      H1             35.8203672247       15.8532898063      -29.6368807794  TIP3      10902           0.0000000000
     57622     11102  TIP3      H2             34.4250840957       15.8027603568      -29.1315562183  TIP3      10902           0.0000000000
     57623     11103  TIP3      OH2            31.4567455050        9.4804548531      -27.4170735384  TIP3      10903           0.0000000000
     57624     11103  TIP3      H1             31.2213097280        8.6817161426      -26.8959780863  TIP3      10903           0.0000000000
     57625     11103  TIP3      H2             32.4154550329        9.5090126063      -27.2571573706  TIP3      10903           0.0000000000
     57626     11104  TIP3      OH2            24.8146043711       11.9109872061      -31.1704975268  TIP3      10904           0.0000000000
     57627     11104  TIP3      H1             24.9077862602       11.1491548891      -31.7659838361  TIP3      10904           0.0000000000
     57628     11104  TIP3      H2             24.3677168162       11.4802055372      -30.4092811115  TIP3      10904           0.0000000000
     57629     11105  TIP3      OH2            23.5843666524       11.4382485802      -28.7200637731  TIP3      10905           0.0000000000
     57630     11105  TIP3      H1             23.8548930087       10.9241960633      -27.9499443339  TIP3      10905           0.0000000000
     57631     11105  TIP3      H2             23.6792574656       12.3650431898      -28.3992635914  TIP3      10905           0.0000000000
     57632     11106  TIP3      OH2            20.1291613517        8.6837975652      -28.2371338602  TIP3      10906           0.0000000000
     57633     11106  TIP3      H1             19.4109328709        9.0783196376      -27.7010084646  TIP3      10906           0.0000000000
     57634     11106  TIP3      H2             20.6311509623        9.4656661005      -28.5302522259  TIP3      10906           0.0000000000
     57635     11107  TIP3      OH2            28.6890514782        0.9483084448      -26.8431479243  TIP3      10907           0.0000000000
     57636     11107  TIP3      H1             28.9425331395        1.3985639277      -27.6750957066  TIP3      10907           0.0000000000
     57637     11107  TIP3      H2             29.2859788029        1.3715338943      -26.2102246369  TIP3      10907           0.0000000000
     57638     11108  TIP3      OH2            26.3952006825       13.0943631974      -28.0185386064  TIP3      10908           0.0000000000
     57639     11108  TIP3      H1             25.5733215245       13.6273822426      -27.9491957159  TIP3      10908           0.0000000000
     57640     11108  TIP3      H2             26.9271696557       13.6478512248      -28.6089059073  TIP3      10908           0.0000000000
     57641     11109  TIP3      OH2            25.9186197679        2.6984855978      -26.0002180337  TIP3      10909           0.0000000000
     57642     11109  TIP3      H1             26.7116411043        3.2679426589      -25.9885789724  TIP3      10909           0.0000000000
     57643     11109  TIP3      H2             25.6757721578        2.5940991538      -25.0845652238  TIP3      10909           0.0000000000
     57644     11110  TIP3      OH2            26.7610185415       -0.2202247134      -25.1317602178  TIP3      10910           0.0000000000
     57645     11110  TIP3      H1             26.5120946548        0.4213563756      -24.4590642802  TIP3      10910           0.0000000000
     57646     11110  TIP3      H2             27.4839980641        0.2740065864      -25.5863496106  TIP3      10910           0.0000000000
     57647     11111  TIP3      OH2            23.7933014650       14.1322347358      -28.0003526167  TIP3      10911           0.0000000000
     57648     11111  TIP3      H1             23.8832663690       14.9483998276      -28.5491524276  TIP3      10911           0.0000000000
     57649     11111  TIP3      H2             23.5143183147       14.4979073456      -27.1347663662  TIP3      10911           0.0000000000
     57650     11112  TIP3      OH2            22.4154992577        0.8560616940      -28.3532486880  TIP3      10912           0.0000000000
     57651     11112  TIP3      H1             22.4107159090        1.7865959365      -28.0576543442  TIP3      10912           0.0000000000
     57652     11112  TIP3      H2             23.3553526451        0.6251644205      -28.1888378912  TIP3      10912           0.0000000000
     57653     11113  TIP3      OH2            31.3164145819        5.3082482039      -22.0870775710  TIP3      10913           0.0000000000
     57654     11113  TIP3      H1             30.4293985675        4.9492400395      -22.2033053930  TIP3      10913           0.0000000000
     57655     11113  TIP3      H2             31.7099257808        4.7736420071      -21.3869572518  TIP3      10913           0.0000000000
     57656     11114  TIP3      OH2            20.6681686487       11.2953952083      -29.3748697752  TIP3      10914           0.0000000000
     57657     11114  TIP3      H1             21.3328799038       11.9256031092      -29.0589023981  TIP3      10914           0.0000000000
     57658     11114  TIP3      H2             21.1925066026       10.8334146231      -30.0593086679  TIP3      10914           0.0000000000
     57659     11115  TIP3      OH2            18.9998240540        3.9627956214      -30.2196277002  TIP3      10915           0.0000000000
     57660     11115  TIP3      H1             19.0315670646        4.9228473481      -30.0253700927  TIP3      10915           0.0000000000
     57661     11115  TIP3      H2             18.1180297367        3.8098547314      -30.5614555161  TIP3      10915           0.0000000000
     57662     11116  TIP3      OH2            32.3519517236       14.5485454514      -20.3320018109  TIP3      10916           0.0000000000
     57663     11116  TIP3      H1             32.2254978550       15.2874177344      -20.9200889450  TIP3      10916           0.0000000000
     57664     11116  TIP3      H2             33.2412403119       14.7128839616      -19.9984623794  TIP3      10916           0.0000000000
     57665     11117  TIP3      OH2            19.7958008134       -1.1995616208      -21.4740432643  TIP3      10917           0.0000000000
     57666     11117  TIP3      H1             19.6322719081       -1.2462853867      -22.4224881305  TIP3      10917           0.0000000000
     57667     11117  TIP3      H2             19.4392860946       -2.0674222045      -21.2050368229  TIP3      10917           0.0000000000
     57668     11118  TIP3      OH2            18.7649356136       12.6677233161      -25.3796799126  TIP3      10918           0.0000000000
     57669     11118  TIP3      H1             17.9280696413       13.1378912476      -25.3990182812  TIP3      10918           0.0000000000
     57670     11118  TIP3      H2             19.2602494262       13.1444557504      -26.0574206178  TIP3      10918           0.0000000000
     57671     11119  TIP3      OH2            26.8074734171       13.7610810732      -31.0412990427  TIP3      10919           0.0000000000
     57672     11119  TIP3      H1             26.1123417676       13.1016599950      -30.8228726092  TIP3      10919           0.0000000000
     57673     11119  TIP3      H2             27.5235111434       13.1625121126      -31.2962049371  TIP3      10919           0.0000000000
     57674     11120  TIP3      OH2            31.3610077850       13.5006933002      -30.8676513868  TIP3      10920           0.0000000000
     57675     11120  TIP3      H1             31.6601308786       12.7306407245      -30.3568203191  TIP3      10920           0.0000000000
     57676     11120  TIP3      H2             32.1261265883       13.7280442101      -31.4151383217  TIP3      10920           0.0000000000
     57677     11121  TIP3      OH2            22.2550225426        9.4450522680      -31.0469952602  TIP3      10921           0.0000000000
     57678     11121  TIP3      H1             22.3966740584        8.6871229017      -30.4560604618  TIP3      10921           0.0000000000
     57679     11121  TIP3      H2             22.9888782705        9.3221635921      -31.6806744386  TIP3      10921           0.0000000000
     57680     11122  TIP3      OH2            27.6835635509       10.5501293286      -31.2669047084  TIP3      10922           0.0000000000
     57681     11122  TIP3      H1             27.4094876042       10.6356851413      -30.3393627186  TIP3      10922           0.0000000000
     57682     11122  TIP3      H2             27.4907704008        9.5975455910      -31.4131443268  TIP3      10922           0.0000000000
     57683     11123  TIP3      OH2            23.4516311459        7.4689813266      -28.6252002519  TIP3      10923           0.0000000000
     57684     11123  TIP3      H1             22.9460563927        6.9291908059      -27.9998854912  TIP3      10923           0.0000000000
     57685     11123  TIP3      H2             23.7553283361        6.7916888202      -29.2722565356  TIP3      10923           0.0000000000
     57686     11124  TIP3      OH2            24.5288025490        5.6845166305      -30.4146613125  TIP3      10924           0.0000000000
     57687     11124  TIP3      H1             24.3690437086        5.6046072901      -31.3770259124  TIP3      10924           0.0000000000
     57688     11124  TIP3      H2             25.5051543918        5.7406842246      -30.3562616942  TIP3      10924           0.0000000000
     57689     11125  TIP3      OH2            33.8521739160        8.0074056811      -30.9974898997  TIP3      10925           0.0000000000
     57690     11125  TIP3      H1             33.6617715381        7.6277610897      -31.8720551767  TIP3      10925           0.0000000000
     57691     11125  TIP3      H2             33.9439764916        8.9692356432      -31.1940231186  TIP3      10925           0.0000000000
     57692     11126  TIP3      OH2            24.3600183281       16.3911372297      -29.3364617092  TIP3      10926           0.0000000000
     57693     11126  TIP3      H1             25.3273577231       16.4716924642      -29.2703882868  TIP3      10926           0.0000000000
     57694     11126  TIP3      H2             24.2138537555       16.9891556100      -30.0790201141  TIP3      10926           0.0000000000
     57695     11127  TIP3      OH2            17.9127957128       10.9529357984      -29.8769537087  TIP3      10927           0.0000000000
     57696     11127  TIP3      H1             18.8780665903       11.0541163753      -29.6908838794  TIP3      10927           0.0000000000
     57697     11127  TIP3      H2             17.9710469363       10.3105102951      -30.6265973950  TIP3      10927           0.0000000000
     57698     11128  TIP3      OH2            16.6830358724       16.3317655925      -24.8899900530  TIP3      10928           0.0000000000
     57699     11128  TIP3      H1             15.9804882809       15.8523709790      -25.3835821224  TIP3      10928           0.0000000000
     57700     11128  TIP3      H2             16.9921065299       15.7004913402      -24.2278419294  TIP3      10928           0.0000000000
     57701     11129  TIP3      OH2            34.3275739480        8.9521783258      -26.9941295842  TIP3      10929           0.0000000000
     57702     11129  TIP3      H1             35.2239641731        9.3109363989      -26.8721370415  TIP3      10929           0.0000000000
     57703     11129  TIP3      H2             34.3739256184        8.1928166328      -26.3730120332  TIP3      10929           0.0000000000
     57704     11130  TIP3      OH2            34.7605707272        6.9949754950      -25.1686712114  TIP3      10930           0.0000000000
     57705     11130  TIP3      H1             34.0245800858        6.4951235938      -24.7564137523  TIP3      10930           0.0000000000
     57706     11130  TIP3      H2             35.3709616710        7.1260485097      -24.4067257370  TIP3      10930           0.0000000000
     57707     11131  TIP3      OH2            34.4765161264        9.7635759690      -20.4005556607  TIP3      10931           0.0000000000
     57708     11131  TIP3      H1             35.3259234806        9.2891591930      -20.4274048917  TIP3      10931           0.0000000000
     57709     11131  TIP3      H2             34.7002107460       10.6802418662      -20.2260442993  TIP3      10931           0.0000000000
     57710     11132  TIP3      OH2            35.0527137993        6.8268287789      -28.7653725547  TIP3      10932           0.0000000000
     57711     11132  TIP3      H1             34.4953662993        7.1680583429      -29.4935940868  TIP3      10932           0.0000000000
     57712     11132  TIP3      H2             34.9727399322        7.5506558905      -28.1206762847  TIP3      10932           0.0000000000
     57713     11133  TIP3      OH2            33.4006775878        4.0601356333      -30.2627167182  TIP3      10933           0.0000000000
     57714     11133  TIP3      H1             33.5101722580        4.7150018228      -30.9607725620  TIP3      10933           0.0000000000
     57715     11133  TIP3      H2             33.2363921978        3.2310702046      -30.7547149699  TIP3      10933           0.0000000000
     57716     11134  TIP3      OH2            32.5654687429        5.4799261834      -24.5849428253  TIP3      10934           0.0000000000
     57717     11134  TIP3      H1             32.4271840391        4.5219187175      -24.6309504533  TIP3      10934           0.0000000000
     57718     11134  TIP3      H2             32.2365937228        5.6785038295      -23.6835544751  TIP3      10934           0.0000000000
     57719     11135  TIP3      OH2            32.6611368459        1.5195769365      -31.1169245424  TIP3      10935           0.0000000000
     57720     11135  TIP3      H1             33.2532149553        1.0792710353      -30.4816583044  TIP3      10935           0.0000000000
     57721     11135  TIP3      H2             31.7962183614        1.1054705035      -30.9671961461  TIP3      10935           0.0000000000
     57722     11136  TIP3      OH2            32.2175975172        3.0568114799      -26.1808208909  TIP3      10936           0.0000000000
     57723     11136  TIP3      H1             32.5384223483        2.1402579388      -26.0111862104  TIP3      10936           0.0000000000
     57724     11136  TIP3      H2             33.0497940699        3.4621895926      -26.4634403834  TIP3      10936           0.0000000000
     57725     11137  TIP3      OH2            32.8894734478        0.3482885266      -26.0823040564  TIP3      10937           0.0000000000
     57726     11137  TIP3      H1             33.1163064798       -0.1132811361      -25.2395381808  TIP3      10937           0.0000000000
     57727     11137  TIP3      H2             32.3077897300       -0.2969541204      -26.5315460297  TIP3      10937           0.0000000000
     57728     11138  TIP3      OH2            34.7206474087        0.3749406452      -29.5229488666  TIP3      10938           0.0000000000
     57729     11138  TIP3      H1             35.1211046049       -0.3335596977      -30.0744568189  TIP3      10938           0.0000000000
     57730     11138  TIP3      H2             35.4183784890        1.0460580510      -29.4957525175  TIP3      10938           0.0000000000
     57731     11139  TIP3      OH2            17.1274091580        0.4457567392      -26.3959905645  TIP3      10939           0.0000000000
     57732     11139  TIP3      H1             16.1591956581        0.5429902068      -26.5530938824  TIP3      10939           0.0000000000
     57733     11139  TIP3      H2             17.4312762732        0.9088093610      -27.2039241124  TIP3      10939           0.0000000000
     57734     11140  TIP3      OH2            31.7824927762       15.3267888687      -24.4519115113  TIP3      10940           0.0000000000
     57735     11140  TIP3      H1             32.4493168938       15.0681421199      -25.1217726383  TIP3      10940           0.0000000000
     57736     11140  TIP3      H2             32.3090559771       15.8726150165      -23.8514942090  TIP3      10940           0.0000000000
     57737     11141  TIP3      OH2            21.2261410196       13.8413813714      -22.2097026599  TIP3      10941           0.0000000000
     57738     11141  TIP3      H1             20.8281835373       12.9873367305      -21.9278410507  TIP3      10941           0.0000000000
     57739     11141  TIP3      H2             21.8812952907       13.9619796937      -21.5245888819  TIP3      10941           0.0000000000
     57740     11142  TIP3      OH2            27.1644123988       -0.0113563286      -22.0580627173  TIP3      10942           0.0000000000
     57741     11142  TIP3      H1             26.4938083967       -0.6533878748      -21.8193075891  TIP3      10942           0.0000000000
     57742     11142  TIP3      H2             27.7483558836       -0.5344343878      -22.6385332204  TIP3      10942           0.0000000000
     57743     11143  TIP3      OH2            33.9099718827       -0.7226819540      -23.7713380573  TIP3      10943           0.0000000000
     57744     11143  TIP3      H1             34.6080584575       -1.2844844365      -24.1622505478  TIP3      10943           0.0000000000
     57745     11143  TIP3      H2             34.4323739841        0.1027833549      -23.6088676231  TIP3      10943           0.0000000000
     57746     11144  TIP3      OH2            19.3283984930       -1.6086512409      -24.0831455337  TIP3      10944           0.0000000000
     57747     11144  TIP3      H1             18.5878629595       -1.8314948916      -24.6776188097  TIP3      10944           0.0000000000
     57748     11144  TIP3      H2             19.9595820964       -2.3572188759      -24.2325544164  TIP3      10944           0.0000000000
     57749     11145  TIP3      OH2            18.3638211386       -1.6033753796      -28.4197584906  TIP3      10945           0.0000000000
     57750     11145  TIP3      H1             18.7645677587       -0.9875260102      -29.0686984114  TIP3      10945           0.0000000000
     57751     11145  TIP3      H2             17.6733144024       -1.0558966440      -28.0224881365  TIP3      10945           0.0000000000
     57752     11146  TIP3      OH2            23.9674651534       -1.4112180648      -24.4218566396  TIP3      10946           0.0000000000
     57753     11146  TIP3      H1             24.8899340899       -1.1105779137      -24.5145647401  TIP3      10946           0.0000000000
     57754     11146  TIP3      H2             23.9305792500       -1.6769964792      -23.4936302037  TIP3      10946           0.0000000000
     57755     11147  TIP3      OH2            29.5897193102       -1.3927843594      -22.7952380815  TIP3      10947           0.0000000000
     57756     11147  TIP3      H1             29.7312778284       -1.3274350377      -23.7458785167  TIP3      10947           0.0000000000
     57757     11147  TIP3      H2             29.3367066303       -2.3345349630      -22.6903428466  TIP3      10947           0.0000000000
     57758     11148  TIP3      OH2            30.9676187508       -1.4042792539      -27.1298278530  TIP3      10948           0.0000000000
     57759     11148  TIP3      H1             30.2225208739       -0.8063020610      -27.2926331150  TIP3      10948           0.0000000000
     57760     11148  TIP3      H2             30.5250797067       -2.2537021307      -26.9017473910  TIP3      10948           0.0000000000
     57761     11149  TIP3      OH2            18.2157017522       14.3312591506      -27.5068773624  TIP3      10949           0.0000000000
     57762     11149  TIP3      H1             17.5362485224       14.3168461512      -28.2039092748  TIP3      10949           0.0000000000
     57763     11149  TIP3      H2             18.1926443302       15.2777400394      -27.2961809326  TIP3      10949           0.0000000000
     57764     11150  TIP3      OH2            20.1075393552        0.2981319115      -29.9613082976  TIP3      10950           0.0000000000
     57765     11150  TIP3      H1             20.6320818794       -0.2817422651      -30.5430275821  TIP3      10950           0.0000000000
     57766     11150  TIP3      H2             20.8080462162        0.6645129182      -29.3944066365  TIP3      10950           0.0000000000
     57767     11151  TIP3      OH2            25.1216011135        0.5799396817      -27.5991070943  TIP3      10951           0.0000000000
     57768     11151  TIP3      H1             25.3939922099       -0.0100227429      -26.8789817350  TIP3      10951           0.0000000000
     57769     11151  TIP3      H2             25.2107606138        1.4404583844      -27.1367782270  TIP3      10951           0.0000000000
     57770     11152  TIP3      OH2            27.0747041954       15.6367869009      -29.1515550222  TIP3      10952           0.0000000000
     57771     11152  TIP3      H1             27.9918010499       15.8650182199      -29.3709502256  TIP3      10952           0.0000000000
     57772     11152  TIP3      H2             26.8575355919       15.1144653638      -29.9550032757  TIP3      10952           0.0000000000
     57773     11153  TIP3      OH2            33.7702397125       15.1458618855      -26.4219770930  TIP3      10953           0.0000000000
     57774     11153  TIP3      H1             33.5956066984       14.3594874032      -26.9940125189  TIP3      10953           0.0000000000
     57775     11153  TIP3      H2             33.6961608319       15.8767237575      -27.0694571065  TIP3      10953           0.0000000000
     57776     11154  TIP3      OH2            19.9943171376       15.3174196686      -30.5431813866  TIP3      10954           0.0000000000
     57777     11154  TIP3      H1             19.7324233850       15.5742126122      -29.6496876616  TIP3      10954           0.0000000000
     57778     11154  TIP3      H2             20.7758860238       14.7517196759      -30.3873168660  TIP3      10954           0.0000000000
     57779     11155  TIP3      OH2            36.2186266974        4.6750254814      -25.4178013092  TIP3      10955           0.0000000000
     57780     11155  TIP3      H1             35.8046856680        5.5587767273      -25.4045918248  TIP3      10955           0.0000000000
     57781     11155  TIP3      H2             35.5914834479        4.1616224031      -25.9218282305  TIP3      10955           0.0000000000
     57782     11156  TIP3      OH2            36.9431279849        6.9780082423      -23.2638936933  TIP3      10956           0.0000000000
     57783     11156  TIP3      H1             37.1019906822        6.1871758912      -22.7201204763  TIP3      10956           0.0000000000
     57784     11156  TIP3      H2             37.6957517349        7.0215807867      -23.8538696991  TIP3      10956           0.0000000000
     57785     11157  TIP3      OH2            39.3898894305        2.6311136724      -20.8247002004  TIP3      10957           0.0000000000
     57786     11157  TIP3      H1             39.8840700632        3.3477837452      -20.4315342061  TIP3      10957           0.0000000000
     57787     11157  TIP3      H2             39.8882116852        2.2837564301      -21.5584395526  TIP3      10957           0.0000000000
     57788     11158  TIP3      OH2            36.9748939110       10.1334378895      -27.0088886079  TIP3      10958           0.0000000000
     57789     11158  TIP3      H1             36.6540183675       10.4851686194      -27.8497272895  TIP3      10958           0.0000000000
     57790     11158  TIP3      H2             37.0319412149       10.9577895219      -26.4819632829  TIP3      10958           0.0000000000
     57791     11159  TIP3      OH2            39.0703014725       14.4184770666      -24.7005127818  TIP3      10959           0.0000000000
     57792     11159  TIP3      H1             39.3010443615       14.5549205157      -23.7797336309  TIP3      10959           0.0000000000
     57793     11159  TIP3      H2             38.1097912704       14.4455579700      -24.7531829481  TIP3      10959           0.0000000000
     57794     11160  TIP3      OH2            35.5603258449        1.4172063504      -23.7590935341  TIP3      10960           0.0000000000
     57795     11160  TIP3      H1             36.2241565353        1.4840154596      -23.0275572434  TIP3      10960           0.0000000000
     57796     11160  TIP3      H2             36.0692022608        1.0739907014      -24.5047452992  TIP3      10960           0.0000000000
     57797     11161  TIP3      OH2            36.8115504503        2.1446012724      -28.3860368282  TIP3      10961           0.0000000000
     57798     11161  TIP3      H1             37.3326279958        2.7706800168      -28.9253641344  TIP3      10961           0.0000000000
     57799     11161  TIP3      H2             36.1517909860        2.7740350084      -28.0181794236  TIP3      10961           0.0000000000
     57800     11162  TIP3      OH2            38.5724459278        3.4430058784      -24.8256580952  TIP3      10962           0.0000000000
     57801     11162  TIP3      H1             37.6092329881        3.4523121014      -24.9372771292  TIP3      10962           0.0000000000
     57802     11162  TIP3      H2             38.8595284330        2.5193786474      -24.8721164845  TIP3      10962           0.0000000000
     57803     11163  TIP3      OH2            39.2089964844        8.5362476756      -21.9347298552  TIP3      10963           0.0000000000
     57804     11163  TIP3      H1             40.0584929507        8.4548550013      -22.3766538521  TIP3      10963           0.0000000000
     57805     11163  TIP3      H2             39.3370670955        7.8047441481      -21.2911702627  TIP3      10963           0.0000000000
     57806     11164  TIP3      OH2            37.5675350799        6.7565407846      -29.7505202647  TIP3      10964           0.0000000000
     57807     11164  TIP3      H1             38.1295471487        7.4244112309      -29.3070478682  TIP3      10964           0.0000000000
     57808     11164  TIP3      H2             36.6558004006        7.0458024234      -29.5066841414  TIP3      10964           0.0000000000
     57809     11165  TIP3      OH2            38.9642487964        8.6722670832      -28.3257950615  TIP3      10965           0.0000000000
     57810     11165  TIP3      H1             38.3183214776        8.9960224642      -27.6575990786  TIP3      10965           0.0000000000
     57811     11165  TIP3      H2             39.4366853727        9.4890358872      -28.4970192139  TIP3      10965           0.0000000000
     57812     11166  TIP3      OH2            39.2683420112       11.3623283130      -29.2798281574  TIP3      10966           0.0000000000
     57813     11166  TIP3      H1             39.9793526342       11.9702332157      -29.0175303167  TIP3      10966           0.0000000000
     57814     11166  TIP3      H2             39.8377185786       10.8990799029      -29.9288567431  TIP3      10966           0.0000000000
     57815     11167  TIP3      OH2            37.8990983816        3.9972791008      -30.2175580482  TIP3      10967           0.0000000000
     57816     11167  TIP3      H1             37.8552131722        4.9581368225      -30.0500032276  TIP3      10967           0.0000000000
     57817     11167  TIP3      H2             37.0217550040        3.7976270090      -30.5566747650  TIP3      10967           0.0000000000
     57818     11168  TIP3      OH2            38.3482327136       -1.0474101659      -21.4540783473  TIP3      10968           0.0000000000
     57819     11168  TIP3      H1             38.1959765941       -0.9748306433      -22.4323788700  TIP3      10968           0.0000000000
     57820     11168  TIP3      H2             37.9946133260       -1.9115791787      -21.1611188300  TIP3      10968           0.0000000000
     57821     11169  TIP3      OH2            37.5073773332       12.5672092821      -25.4018909122  TIP3      10969           0.0000000000
     57822     11169  TIP3      H1             36.7288380707       13.1360653729      -25.4534553098  TIP3      10969           0.0000000000
     57823     11169  TIP3      H2             38.1169813644       13.0704708028      -25.9893074499  TIP3      10969           0.0000000000
     57824     11170  TIP3      OH2            36.7629552356       11.0042362411      -29.9256746863  TIP3      10970           0.0000000000
     57825     11170  TIP3      H1             37.7166955608       11.0610493361      -29.6797990476  TIP3      10970           0.0000000000
     57826     11170  TIP3      H2             36.8118274437       10.2986263139      -30.6083960017  TIP3      10970           0.0000000000
     57827     11171  TIP3      OH2            35.5630205310       16.3202845479      -24.8966512021  TIP3      10971           0.0000000000
     57828     11171  TIP3      H1             34.8476618057       15.8486910315      -25.3809502334  TIP3      10971           0.0000000000
     57829     11171  TIP3      H2             35.8227948524       15.6836118535      -24.2161508665  TIP3      10971           0.0000000000
     57830     11172  TIP3      OH2            36.4958296525       14.4348754533      -23.0157704029  TIP3      10972           0.0000000000
     57831     11172  TIP3      H1             35.9842866164       13.6281241971      -22.8670413140  TIP3      10972           0.0000000000
     57832     11172  TIP3      H2             36.5595354901       14.8536543854      -22.1340027786  TIP3      10972           0.0000000000
     57833     11173  TIP3      OH2            37.1718321461        1.2340096025      -21.5585928350  TIP3      10973           0.0000000000
     57834     11173  TIP3      H1             37.6480464891        0.4286950228      -21.2707864739  TIP3      10973           0.0000000000
     57835     11173  TIP3      H2             37.7150706288        1.9099322247      -21.1127421737  TIP3      10973           0.0000000000
     57836     11174  TIP3      OH2            35.9350091910        0.3609242627      -26.4662708502  TIP3      10974           0.0000000000
     57837     11174  TIP3      H1             34.9937292828        0.5897831069      -26.5654038601  TIP3      10974           0.0000000000
     57838     11174  TIP3      H2             36.3431550721        0.9089170801      -27.1504378299  TIP3      10974           0.0000000000
     57839     11175  TIP3      OH2            37.7609270155       15.1298050219      -20.7543661349  TIP3      10975           0.0000000000
     57840     11175  TIP3      H1             37.7123546502       14.7639913907      -19.8504585220  TIP3      10975           0.0000000000
     57841     11175  TIP3      H2             38.6289766446       14.9291206414      -21.0755390316  TIP3      10975           0.0000000000
     57842     11176  TIP3      OH2            38.0728372403       -1.4799955813      -24.0364544994  TIP3      10976           0.0000000000
     57843     11176  TIP3      H1             37.4497028479       -1.5095717244      -24.7941662580  TIP3      10976           0.0000000000
     57844     11176  TIP3      H2             38.8061504401       -1.9981124909      -24.3617954282  TIP3      10976           0.0000000000
     57845     11177  TIP3      OH2            37.1292883498       -1.6092808117      -28.5155259163  TIP3      10977           0.0000000000
     57846     11177  TIP3      H1             37.6159740659       -0.9540857553      -29.0502071426  TIP3      10977           0.0000000000
     57847     11177  TIP3      H2             36.5618119013       -1.0410216026      -27.9656446644  TIP3      10977           0.0000000000
     57848     11178  TIP3      OH2            37.0280478591       14.3193230152      -27.4881543444  TIP3      10978           0.0000000000
     57849     11178  TIP3      H1             36.3791926955       14.3221613103      -28.2131921137  TIP3      10978           0.0000000000
     57850     11178  TIP3      H2             37.0629345372       15.2718139542      -27.3204589590  TIP3      10978           0.0000000000
     57851     11179  TIP3      OH2            38.9906822717        0.3381351757      -29.9473322448  TIP3      10979           0.0000000000
     57852     11179  TIP3      H1             39.5098713556       -0.2802134790      -30.4786495101  TIP3      10979           0.0000000000
     57853     11179  TIP3      H2             39.6500918853        0.7052063588      -29.3495072283  TIP3      10979           0.0000000000
     57854     11180  TIP3      OH2            38.8328354033       15.2631758238      -30.5429131439  TIP3      10980           0.0000000000
     57855     11180  TIP3      H1             38.5895959136       15.6349728859      -29.6790387884  TIP3      10980           0.0000000000
     57856     11180  TIP3      H2             39.6539556499       14.7960358487      -30.3591914429  TIP3      10980           0.0000000000
     57857     11181  TIP3      OH2           -27.9374599720       26.6402281983      -24.3866426205  TIP3      10981           0.0000000000
     57858     11181  TIP3      H1            -28.0116681170       27.6162921262      -24.3793080313  TIP3      10981           0.0000000000
     57859     11181  TIP3      H2            -28.6872965430       26.3739136598      -24.9518818553  TIP3      10981           0.0000000000
     57860     11182  TIP3      OH2           -29.0864758770       25.8426060987      -20.8861019254  TIP3      10982           0.0000000000
     57861     11182  TIP3      H1            -29.1596455340       25.2440514821      -20.1545827065  TIP3      10982           0.0000000000
     57862     11182  TIP3      H2            -29.3990860797       25.3938535196      -21.6717161590  TIP3      10982           0.0000000000
     57863     11183  TIP3      OH2           -35.8021259045       30.0029476057      -20.8744596132  TIP3      10983           0.0000000000
     57864     11183  TIP3      H1            -36.1015914542       29.1233848691      -21.0774745326  TIP3      10983           0.0000000000
     57865     11183  TIP3      H2            -34.8436090401       29.8392446621      -20.6941147891  TIP3      10983           0.0000000000
     57866     11184  TIP3      OH2           -39.1188365793       23.6110270494      -25.4366239517  TIP3      10984           0.0000000000
     57867     11184  TIP3      H1            -39.6100118098       24.4388061501      -25.3763180391  TIP3      10984           0.0000000000
     57868     11184  TIP3      H2            -39.8070313760       23.0170177868      -25.7596858216  TIP3      10984           0.0000000000
     57869     11185  TIP3      OH2           -28.2920738759       34.0147871140      -22.3239256613  TIP3      10985           0.0000000000
     57870     11185  TIP3      H1            -27.6830677790       33.2969408189      -22.6174932078  TIP3      10985           0.0000000000
     57871     11185  TIP3      H2            -28.5260220538       33.7044386495      -21.4493140128  TIP3      10985           0.0000000000
     57872     11186  TIP3      OH2           -34.4475442070       20.8291063456      -22.8945834940  TIP3      10986           0.0000000000
     57873     11186  TIP3      H1            -34.3639340888       21.6973040714      -23.3370414671  TIP3      10986           0.0000000000
     57874     11186  TIP3      H2            -34.8615603091       20.2593296230      -23.5648033028  TIP3      10986           0.0000000000
     57875     11187  TIP3      OH2           -26.7210978389       20.9556590820      -24.5150956965  TIP3      10987           0.0000000000
     57876     11187  TIP3      H1            -26.1020056137       20.5861151046      -23.8732033151  TIP3      10987           0.0000000000
     57877     11187  TIP3      H2            -26.1372076772       21.4978639075      -25.0564276643  TIP3      10987           0.0000000000
     57878     11188  TIP3      OH2           -32.6480617469       24.7917315234      -22.8500265344  TIP3      10988           0.0000000000
     57879     11188  TIP3      H1            -32.0289252988       24.2143038377      -22.3865897821  TIP3      10988           0.0000000000
     57880     11188  TIP3      H2            -33.1989645889       24.1241445661      -23.3064959681  TIP3      10988           0.0000000000
     57881     11189  TIP3      OH2           -28.2144687461       29.2301787430      -25.2821424504  TIP3      10989           0.0000000000
     57882     11189  TIP3      H1            -28.5510888907       28.9337866640      -26.1354469676  TIP3      10989           0.0000000000
     57883     11189  TIP3      H2            -28.5598884323       30.1552897328      -25.2355965006  TIP3      10989           0.0000000000
     57884     11190  TIP3      OH2           -38.4412288700       29.0486088236      -27.0533408275  TIP3      10990           0.0000000000
     57885     11190  TIP3      H1            -38.7867370949       29.3669098300      -27.8814158817  TIP3      10990           0.0000000000
     57886     11190  TIP3      H2            -38.4426655842       29.8434665402      -26.4845199896  TIP3      10990           0.0000000000
     57887     11191  TIP3      OH2           -26.6217695505       32.4458884043      -23.6441766052  TIP3      10991           0.0000000000
     57888     11191  TIP3      H1            -26.2058893371       31.7383396292      -24.1612695009  TIP3      10991           0.0000000000
     57889     11191  TIP3      H2            -26.2104342775       33.2591300940      -24.0054581675  TIP3      10991           0.0000000000
     57890     11192  TIP3      OH2           -25.4276162209       30.3818164176      -25.0886168417  TIP3      10992           0.0000000000
     57891     11192  TIP3      H1            -25.7273064937       29.7064049633      -25.7250547015  TIP3      10992           0.0000000000
     57892     11192  TIP3      H2            -25.3857238091       29.8889300209      -24.2719854414  TIP3      10992           0.0000000000
     57893     11193  TIP3      OH2           -29.2871805136       25.8902804119      -26.8307429629  TIP3      10993           0.0000000000
     57894     11193  TIP3      H1            -30.0025471858       26.4169464504      -27.2362372324  TIP3      10993           0.0000000000
     57895     11193  TIP3      H2            -28.6080012366       25.9309271169      -27.5317446555  TIP3      10993           0.0000000000
     57896     11194  TIP3      OH2           -29.0748357811       24.7599016839      -29.9549781395  TIP3      10994           0.0000000000
     57897     11194  TIP3      H1            -28.5655472239       24.4653384562      -29.1855611416  TIP3      10994           0.0000000000
     57898     11194  TIP3      H2            -29.0810095702       23.8456136038      -30.3260912310  TIP3      10994           0.0000000000
     57899     11195  TIP3      OH2           -25.8025883359       26.1089947085      -25.9015003811  TIP3      10995           0.0000000000
     57900     11195  TIP3      H1            -26.6257986178       26.3005921446      -25.3742011841  TIP3      10995           0.0000000000
     57901     11195  TIP3      H2            -25.4628966898       25.3561037424      -25.4233104162  TIP3      10995           0.0000000000
     57902     11196  TIP3      OH2           -34.2199528613       26.7250182350      -24.0004145739  TIP3      10996           0.0000000000
     57903     11196  TIP3      H1            -34.5785018848       26.3195182718      -24.8223284909  TIP3      10996           0.0000000000
     57904     11196  TIP3      H2            -33.6421720675       26.0107452192      -23.6478927636  TIP3      10996           0.0000000000
     57905     11197  TIP3      OH2           -33.0868562579       29.8353611409      -21.1396475596  TIP3      10997           0.0000000000
     57906     11197  TIP3      H1            -32.9592640090       29.7071574141      -22.0840240292  TIP3      10997           0.0000000000
     57907     11197  TIP3      H2            -32.1568878586       29.8520840519      -20.8632320757  TIP3      10997           0.0000000000
     57908     11198  TIP3      OH2           -33.9757629845       25.5864791074      -20.4466839135  TIP3      10998           0.0000000000
     57909     11198  TIP3      H1            -33.3093746697       25.5601257034      -21.1510325172  TIP3      10998           0.0000000000
     57910     11198  TIP3      H2            -33.5691369407       26.1177289576      -19.7541381475  TIP3      10998           0.0000000000
     57911     11199  TIP3      OH2           -26.9767005387       25.2952590379      -28.2496085452  TIP3      10999           0.0000000000
     57912     11199  TIP3      H1            -26.4033949330       25.4541747276      -27.4722049581  TIP3      10999           0.0000000000
     57913     11199  TIP3      H2            -26.5427350111       25.7524495152      -29.0041430368  TIP3      10999           0.0000000000
     57914     11200  TIP3      OH2           -29.0818297951       32.0498083208      -24.9453452600  TIP3      11000           0.0000000000
     57915     11200  TIP3      H1            -28.9135656179       32.2212165010      -24.0013013696  TIP3      11000           0.0000000000
     57916     11200  TIP3      H2            -29.8699073668       32.6231142141      -25.0022634998  TIP3      11000           0.0000000000
     57917     11201  TIP3      OH2           -23.2728026517       16.9875748527      -28.4315085590  TIP3      11001           0.0000000000
     57918     11201  TIP3      H1            -24.1899155240       17.1155284063      -28.0903816397  TIP3      11001           0.0000000000
     57919     11201  TIP3      H2            -23.0271031125       17.8665056418      -28.7594851334  TIP3      11001           0.0000000000
     57920     11202  TIP3      OH2           -35.2559934275       25.7482426243      -26.4340777369  TIP3      11002           0.0000000000
     57921     11202  TIP3      H1            -35.5870480364       26.5272238854      -26.9235969531  TIP3      11002           0.0000000000
     57922     11202  TIP3      H2            -35.9275572335       25.0873496086      -26.6080278778  TIP3      11002           0.0000000000
     57923     11203  TIP3      OH2           -22.2701250149       31.3824051836      -30.0040592706  TIP3      11003           0.0000000000
     57924     11203  TIP3      H1            -22.1376717527       32.3246390346      -29.7527016341  TIP3      11003           0.0000000000
     57925     11203  TIP3      H2            -21.4448831561       30.9371218477      -29.7270109901  TIP3      11003           0.0000000000
     57926     11204  TIP3      OH2           -38.8337368528       31.6677633884      -20.8528018921  TIP3      11004           0.0000000000
     57927     11204  TIP3      H1            -38.3072460566       30.8912962408      -20.6082853255  TIP3      11004           0.0000000000
     57928     11204  TIP3      H2            -39.4940966534       31.7121624275      -20.1471563771  TIP3      11004           0.0000000000
     57929     11205  TIP3      OH2           -29.7531225861       34.9179531077      -26.3811002045  TIP3      11005           0.0000000000
     57930     11205  TIP3      H1            -29.9094904404       34.8268067299      -27.3321963216  TIP3      11005           0.0000000000
     57931     11205  TIP3      H2            -29.8067069521       35.8680659170      -26.2034739547  TIP3      11005           0.0000000000
     57932     11206  TIP3      OH2           -36.1448770862       33.7583774323      -24.5874423111  TIP3      11006           0.0000000000
     57933     11206  TIP3      H1            -35.9858939682       33.3829902546      -23.6902269824  TIP3      11006           0.0000000000
     57934     11206  TIP3      H2            -37.0163225953       33.3979902506      -24.7870631720  TIP3      11006           0.0000000000
     57935     11207  TIP3      OH2           -26.7302237176       34.1260846321      -29.4052937292  TIP3      11007           0.0000000000
     57936     11207  TIP3      H1            -26.2869945489       33.3560286640      -29.8264035064  TIP3      11007           0.0000000000
     57937     11207  TIP3      H2            -26.6978597467       33.8682356286      -28.4589518991  TIP3      11007           0.0000000000
     57938     11208  TIP3      OH2           -27.0410336737       34.0509471426      -26.6380623065  TIP3      11008           0.0000000000
     57939     11208  TIP3      H1            -28.0075391473       34.1199623468      -26.4483940575  TIP3      11008           0.0000000000
     57940     11208  TIP3      H2            -26.8214769254       33.3145238853      -26.0442555515  TIP3      11008           0.0000000000
     57941     11209  TIP3      OH2           -25.5221819956       26.2976944429      -30.4521092496  TIP3      11009           0.0000000000
     57942     11209  TIP3      H1            -25.5581906388       26.1202699681      -31.4219479795  TIP3      11009           0.0000000000
     57943     11209  TIP3      H2            -24.6713274678       26.7536789953      -30.4073500864  TIP3      11009           0.0000000000
     57944     11210  TIP3      OH2           -29.8318011864       19.1337828259      -29.5706682871  TIP3      11010           0.0000000000
     57945     11210  TIP3      H1            -30.1240277881       19.9811223339      -29.1674580606  TIP3      11010           0.0000000000
     57946     11210  TIP3      H2            -30.4129459119       19.1902604335      -30.3441229864  TIP3      11010           0.0000000000
     57947     11211  TIP3      OH2           -34.1692244552       23.0750024032      -24.5159776841  TIP3      11011           0.0000000000
     57948     11211  TIP3      H1            -35.1125885890       22.8307514886      -24.6172078979  TIP3      11011           0.0000000000
     57949     11211  TIP3      H2            -33.7885954200       22.7693379299      -25.3607695307  TIP3      11011           0.0000000000
     57950     11212  TIP3      OH2           -28.6105869897       23.5987039914      -25.6897264087  TIP3      11012           0.0000000000
     57951     11212  TIP3      H1            -29.0364513123       24.3905921523      -26.0834277438  TIP3      11012           0.0000000000
     57952     11212  TIP3      H2            -27.9850516595       23.3815410099      -26.4033060415  TIP3      11012           0.0000000000
     57953     11213  TIP3      OH2           -27.6198708058       23.0211115330      -22.8590581769  TIP3      11013           0.0000000000
     57954     11213  TIP3      H1            -27.9299941077       23.5860763867      -23.5862050994  TIP3      11013           0.0000000000
     57955     11213  TIP3      H2            -27.5297548405       22.1828148153      -23.3483589426  TIP3      11013           0.0000000000
     57956     11214  TIP3      OH2           -33.1439388054       20.5602484592      -30.8540650586  TIP3      11014           0.0000000000
     57957     11214  TIP3      H1            -33.5692196859       20.1752102013      -30.0614551999  TIP3      11014           0.0000000000
     57958     11214  TIP3      H2            -33.8546506465       21.0179573006      -31.3145368576  TIP3      11014           0.0000000000
     57959     11215  TIP3      OH2           -39.7928565754       20.2672520603      -23.7019012250  TIP3      11015           0.0000000000
     57960     11215  TIP3      H1            -39.1141553082       20.2088959505      -23.0623012291  TIP3      11015           0.0000000000
     57961     11215  TIP3      H2            -39.4206482257       19.8316735350      -24.4883495607  TIP3      11015           0.0000000000
     57962     11216  TIP3      OH2           -38.5676416130       21.0587122629      -28.3461439286  TIP3      11016           0.0000000000
     57963     11216  TIP3      H1            -38.0447249280       21.6757585815      -28.9046576057  TIP3      11016           0.0000000000
     57964     11216  TIP3      H2            -39.2381023506       21.6382237139      -27.9782392181  TIP3      11016           0.0000000000
     57965     11217  TIP3      OH2           -31.5915166760       20.6026433229      -23.4884464634  TIP3      11017           0.0000000000
     57966     11217  TIP3      H1            -32.5128079142       20.6128254722      -23.1580127402  TIP3      11017           0.0000000000
     57967     11217  TIP3      H2            -31.1159993731       20.4681559620      -22.6569757664  TIP3      11017           0.0000000000
     57968     11218  TIP3      OH2           -36.7801512779       22.1184378737      -24.6082207130  TIP3      11018           0.0000000000
     57969     11218  TIP3      H1            -37.6449823788       22.3540609796      -24.9933372135  TIP3      11018           0.0000000000
     57970     11218  TIP3      H2            -36.5126916733       21.2974481423      -25.0530793880  TIP3      11018           0.0000000000
     57971     11219  TIP3      OH2           -33.1675797155       22.2291075228      -27.0005810056  TIP3      11019           0.0000000000
     57972     11219  TIP3      H1            -32.1988806942       22.2975700000      -26.8723323718  TIP3      11019           0.0000000000
     57973     11219  TIP3      H2            -33.3745010052       22.8932658280      -27.6771195439  TIP3      11019           0.0000000000
     57974     11220  TIP3      OH2           -34.4457943225       23.3803243062      -29.4183491978  TIP3      11020           0.0000000000
     57975     11220  TIP3      H1            -34.9923848047       23.0200675519      -30.1401965983  TIP3      11020           0.0000000000
     57976     11220  TIP3      H2            -33.6157810140       23.5809816279      -29.8809694431  TIP3      11020           0.0000000000
     57977     11221  TIP3      OH2           -35.3044808950       19.5171335221      -25.1575590827  TIP3      11021           0.0000000000
     57978     11221  TIP3      H1            -35.6079556265       18.5940761760      -25.1809360488  TIP3      11021           0.0000000000
     57979     11221  TIP3      H2            -34.5295956946       19.4628172406      -25.7269157168  TIP3      11021           0.0000000000
     57980     11222  TIP3      OH2           -31.0837813697       27.9026401136      -27.4793681992  TIP3      11022           0.0000000000
     57981     11222  TIP3      H1            -31.8947614240       27.4552200292      -27.8197262328  TIP3      11022           0.0000000000
     57982     11222  TIP3      H2            -31.3276900946       28.0642564560      -26.5356142986  TIP3      11022           0.0000000000
     57983     11223  TIP3      OH2           -27.1694090409       20.6993507687      -29.2811135913  TIP3      11023           0.0000000000
     57984     11223  TIP3      H1            -28.1381302580       20.8811780556      -29.4473927961  TIP3      11023           0.0000000000
     57985     11223  TIP3      H2            -26.9294631877       21.5878100790      -28.9568613411  TIP3      11023           0.0000000000
     57986     11224  TIP3      OH2           -26.5305202238       22.6697891649      -27.6396900439  TIP3      11024           0.0000000000
     57987     11224  TIP3      H1            -25.6257578528       22.5203930623      -27.3058337180  TIP3      11024           0.0000000000
     57988     11224  TIP3      H2            -26.4564144851       23.4566541627      -28.2090321271  TIP3      11024           0.0000000000
     57989     11225  TIP3      OH2           -29.0058508243       29.3870904912      -28.4582372242  TIP3      11025           0.0000000000
     57990     11225  TIP3      H1            -29.3512715677       30.2236484120      -28.0859523998  TIP3      11025           0.0000000000
     57991     11225  TIP3      H2            -29.7324372232       28.7634228151      -28.2386335603  TIP3      11025           0.0000000000
     57992     11226  TIP3      OH2           -21.6275200785       22.7974697917      -27.8932542860  TIP3      11026           0.0000000000
     57993     11226  TIP3      H1            -22.1825277935       22.5096095995      -28.6413182496  TIP3      11026           0.0000000000
     57994     11226  TIP3      H2            -21.5387149988       23.7393052304      -28.1704636708  TIP3      11026           0.0000000000
     57995     11227  TIP3      OH2           -23.3336274146       31.6189644291      -27.5082279355  TIP3      11027           0.0000000000
     57996     11227  TIP3      H1            -23.7267253941       30.8050646110      -27.1602154315  TIP3      11027           0.0000000000
     57997     11227  TIP3      H2            -23.0795126987       31.3979730334      -28.4093260324  TIP3      11027           0.0000000000
     57998     11228  TIP3      OH2           -33.7610987598       30.6398739124      -24.5783847632  TIP3      11028           0.0000000000
     57999     11228  TIP3      H1            -33.1390820361       31.3983585458      -24.4138076207  TIP3      11028           0.0000000000
     58000     11228  TIP3      H2            -34.5988873718       31.0878531541      -24.6412360323  TIP3      11028           0.0000000000
     58001     11229  TIP3      OH2           -37.9282400046       25.6312597459      -29.7441059468  TIP3      11029           0.0000000000
     58002     11229  TIP3      H1            -37.2822077822       26.2541484572      -29.3422550070  TIP3      11029           0.0000000000
     58003     11229  TIP3      H2            -38.7596520055       25.9900474716      -29.4233675773  TIP3      11029           0.0000000000
     58004     11230  TIP3      OH2           -32.2116063418       28.4243662522      -24.8243393137  TIP3      11030           0.0000000000
     58005     11230  TIP3      H1            -32.4812328243       29.3622675314      -24.6826353223  TIP3      11030           0.0000000000
     58006     11230  TIP3      H2            -32.9384088892       27.9744834534      -24.3490981251  TIP3      11030           0.0000000000
     58007     11231  TIP3      OH2           -33.5304635133       33.4683629798      -25.3633960479  TIP3      11031           0.0000000000
     58008     11231  TIP3      H1            -34.4761625241       33.5373212319      -25.1078608104  TIP3      11031           0.0000000000
     58009     11231  TIP3      H2            -33.1488198460       34.2132345291      -24.8652711307  TIP3      11031           0.0000000000
     58010     11232  TIP3      OH2           -25.8505764051       29.7236844490      -29.6660348916  TIP3      11032           0.0000000000
     58011     11232  TIP3      H1            -25.5916088687       29.2185423727      -28.8684950697  TIP3      11032           0.0000000000
     58012     11232  TIP3      H2            -26.8084565912       29.5280040493      -29.6043726048  TIP3      11032           0.0000000000
     58013     11233  TIP3      OH2           -21.4213365314       34.0173321668      -29.4534114234  TIP3      11033           0.0000000000
     58014     11233  TIP3      H1            -20.7387314442       34.7071021459      -29.6109136250  TIP3      11033           0.0000000000
     58015     11233  TIP3      H2            -22.1427993866       34.6285171293      -29.1370416196  TIP3      11033           0.0000000000
     58016     11234  TIP3      OH2           -25.1022241479       28.3576072863      -27.4029864200  TIP3      11034           0.0000000000
     58017     11234  TIP3      H1            -25.3525613015       27.5486419217      -26.9093954593  TIP3      11034           0.0000000000
     58018     11234  TIP3      H2            -24.1444080570       28.3761066232      -27.2516734328  TIP3      11034           0.0000000000
     58019     11235  TIP3      OH2           -31.7740190302       30.7697759393      -31.1739848153  TIP3      11035           0.0000000000
     58020     11235  TIP3      H1            -31.6584945600       30.0028277813      -31.7603358733  TIP3      11035           0.0000000000
     58021     11235  TIP3      H2            -32.2004854850       30.3332550571      -30.4044534378  TIP3      11035           0.0000000000
     58022     11236  TIP3      OH2           -32.9822860262       30.2919098944      -28.7151165001  TIP3      11036           0.0000000000
     58023     11236  TIP3      H1            -32.7355315279       29.7900076599      -27.9294866886  TIP3      11036           0.0000000000
     58024     11236  TIP3      H2            -32.9150985793       31.2196758987      -28.3860512200  TIP3      11036           0.0000000000
     58025     11237  TIP3      OH2           -36.4927015314       27.5269050168      -28.2654068767  TIP3      11037           0.0000000000
     58026     11237  TIP3      H1            -37.1710618148       27.9204775176      -27.6764175200  TIP3      11037           0.0000000000
     58027     11237  TIP3      H2            -35.9484751986       28.3017358663      -28.5021544606  TIP3      11037           0.0000000000
     58028     11238  TIP3      OH2           -27.8456343475       19.7751506847      -26.8199044571  TIP3      11038           0.0000000000
     58029     11238  TIP3      H1            -27.6891850799       20.2670821082      -27.6534991281  TIP3      11038           0.0000000000
     58030     11238  TIP3      H2            -27.2963628766       20.2400835789      -26.1732614427  TIP3      11038           0.0000000000
     58031     11239  TIP3      OH2           -30.1912782518       31.9349317881      -28.0741151252  TIP3      11039           0.0000000000
     58032     11239  TIP3      H1            -30.9907814504       32.4810329993      -27.9291920426  TIP3      11039           0.0000000000
     58033     11239  TIP3      H2            -29.6405987900       32.5228982657      -28.6068980254  TIP3      11039           0.0000000000
     58034     11240  TIP3      OH2           -30.6638512293       21.5818833202      -25.9743698663  TIP3      11040           0.0000000000
     58035     11240  TIP3      H1            -29.8450242515       22.1176483102      -25.9442941145  TIP3      11040           0.0000000000
     58036     11240  TIP3      H2            -30.8908832185       21.4071756360      -25.0411407195  TIP3      11040           0.0000000000
     58037     11241  TIP3      OH2           -29.7694882310       18.6282688775      -25.0802108481  TIP3      11041           0.0000000000
     58038     11241  TIP3      H1            -30.0808592953       19.2936653513      -24.4390013637  TIP3      11041           0.0000000000
     58039     11241  TIP3      H2            -29.1106919908       19.1510925442      -25.6032716053  TIP3      11041           0.0000000000
     58040     11242  TIP3      OH2           -32.7803535737       32.9852327442      -28.0317807084  TIP3      11042           0.0000000000
     58041     11242  TIP3      H1            -32.6798842900       33.8202165617      -28.5455302341  TIP3      11042           0.0000000000
     58042     11242  TIP3      H2            -33.0257500310       33.3226501047      -27.1357567579  TIP3      11042           0.0000000000
     58043     11243  TIP3      OH2           -34.1404688515       19.7039089134      -28.4051756579  TIP3      11043           0.0000000000
     58044     11243  TIP3      H1            -34.1619693256       20.6115214538      -28.0407179160  TIP3      11043           0.0000000000
     58045     11243  TIP3      H2            -33.2132787624       19.4726094034      -28.1597420052  TIP3      11043           0.0000000000
     58046     11244  TIP3      OH2           -35.8343302496       30.1617292500      -29.3679963732  TIP3      11044           0.0000000000
     58047     11244  TIP3      H1            -35.1847990632       30.8015220214      -29.0556493835  TIP3      11044           0.0000000000
     58048     11244  TIP3      H2            -35.3126992260       29.6976028678      -30.0469353330  TIP3      11044           0.0000000000
     58049     11245  TIP3      OH2           -37.5524279800       22.8293081955      -30.2059333641  TIP3      11045           0.0000000000
     58050     11245  TIP3      H1            -37.5386180555       23.7871091290      -30.0264687697  TIP3      11045           0.0000000000
     58051     11245  TIP3      H2            -38.4385875789       22.6675170171      -30.5389788886  TIP3      11045           0.0000000000
     58052     11246  TIP3      OH2           -24.0788645149       33.4136498283      -20.4021648744  TIP3      11046           0.0000000000
     58053     11246  TIP3      H1            -24.4114679747       34.1899618937      -20.9075928622  TIP3      11046           0.0000000000
     58054     11246  TIP3      H2            -23.3321097027       33.8141308449      -19.9892076069  TIP3      11046           0.0000000000
     58055     11247  TIP3      OH2           -36.7188837999       17.5779738785      -21.5312570521  TIP3      11047           0.0000000000
     58056     11247  TIP3      H1            -36.9363689677       17.6319614270      -22.4761312418  TIP3      11047           0.0000000000
     58057     11247  TIP3      H2            -37.1783121925       16.7906353317      -21.2295411841  TIP3      11047           0.0000000000
     58058     11248  TIP3      OH2           -37.7545981380       31.5076935235      -25.3624736402  TIP3      11048           0.0000000000
     58059     11248  TIP3      H1            -38.5961054108       31.9822642593      -25.3523738876  TIP3      11048           0.0000000000
     58060     11248  TIP3      H2            -37.2618638338       32.0302312317      -26.0076331332  TIP3      11048           0.0000000000
     58061     11249  TIP3      OH2           -29.7617252722       32.6175342170      -31.0523824476  TIP3      11049           0.0000000000
     58062     11249  TIP3      H1            -30.4535358555       31.9592014217      -30.8200394984  TIP3      11049           0.0000000000
     58063     11249  TIP3      H2            -29.0436952956       32.0172461200      -31.2954492916  TIP3      11049           0.0000000000
     58064     11250  TIP3      OH2           -25.1956516027       32.3493992472      -30.8427616638  TIP3      11050           0.0000000000
     58065     11250  TIP3      H1            -24.9155996209       31.5596744385      -30.3556857498  TIP3      11050           0.0000000000
     58066     11250  TIP3      H2            -24.4615542756       32.5999398588      -31.4189821043  TIP3      11050           0.0000000000
     58067     11251  TIP3      OH2           -34.3257040295       28.2964880672      -31.0403556325  TIP3      11051           0.0000000000
     58068     11251  TIP3      H1            -34.1811441489       27.5420476011      -30.4479020157  TIP3      11051           0.0000000000
     58069     11251  TIP3      H2            -33.5633937112       28.1748575164      -31.6395149044  TIP3      11051           0.0000000000
     58070     11252  TIP3      OH2           -28.8883992181       29.4089921403      -31.2656240107  TIP3      11052           0.0000000000
     58071     11252  TIP3      H1            -29.1566954536       29.4924469236      -30.3336929030  TIP3      11052           0.0000000000
     58072     11252  TIP3      H2            -29.0730070414       28.4520258186      -31.4120509567  TIP3      11052           0.0000000000
     58073     11253  TIP3      OH2           -33.1232297893       26.3200426749      -28.6290325678  TIP3      11053           0.0000000000
     58074     11253  TIP3      H1            -33.5994265892       25.7788898936      -27.9774928963  TIP3      11053           0.0000000000
     58075     11253  TIP3      H2            -32.7965950948       25.6409612928      -29.2689072762  TIP3      11053           0.0000000000
     58076     11254  TIP3      OH2           -32.0561017719       24.6050574977      -30.4205700623  TIP3      11054           0.0000000000
     58077     11254  TIP3      H1            -32.1821184774       24.4418953962      -31.3717438089  TIP3      11054           0.0000000000
     58078     11254  TIP3      H2            -31.0766637385       24.5535427875      -30.3377019641  TIP3      11054           0.0000000000
     58079     11255  TIP3      OH2           -22.6909346782       26.8679998956      -31.0063161880  TIP3      11055           0.0000000000
     58080     11255  TIP3      H1            -22.9069162651       26.4674495011      -31.8669412297  TIP3      11055           0.0000000000
     58081     11255  TIP3      H2            -22.6363204778       27.8278835142      -31.2052991325  TIP3      11055           0.0000000000
     58082     11256  TIP3      OH2           -32.2094911802       35.2492769691      -29.3426915758  TIP3      11056           0.0000000000
     58083     11256  TIP3      H1            -31.2418261427       35.3332526780      -29.2712298520  TIP3      11056           0.0000000000
     58084     11256  TIP3      H2            -32.3549286976       35.8582989936      -30.0788599360  TIP3      11056           0.0000000000
     58085     11257  TIP3      OH2           -38.2531117696       29.9391362316      -30.1670002659  TIP3      11057           0.0000000000
     58086     11257  TIP3      H1            -37.3738907310       29.8619200183      -29.7272301708  TIP3      11057           0.0000000000
     58087     11257  TIP3      H2            -38.3566601447       29.0932716478      -30.6412119400  TIP3      11057           0.0000000000
     58088     11258  TIP3      OH2            40.2964590587       35.3645199497      -25.1514865779  TIP3      11058           0.0000000000
     58089     11258  TIP3      H1             39.4670986738       34.9432244910      -25.4178521977  TIP3      11058           0.0000000000
     58090     11258  TIP3      H2             40.4156949236       34.7883618893      -24.3680913568  TIP3      11058           0.0000000000
     58091     11259  TIP3      OH2           -38.8793873784       33.3268612267      -22.9453139968  TIP3      11059           0.0000000000
     58092     11259  TIP3      H1            -39.2815088665       32.4618542419      -22.7702475662  TIP3      11059           0.0000000000
     58093     11259  TIP3      H2            -38.7154234398       33.6434748271      -22.0528387769  TIP3      11059           0.0000000000
     58094     11260  TIP3      OH2           -22.1817504173       27.8137629528      -27.0429910182  TIP3      11060           0.0000000000
     58095     11260  TIP3      H1            -21.2979340778       28.1757092651      -26.8761033648  TIP3      11060           0.0000000000
     58096     11260  TIP3      H2            -22.1853912551       27.0719459321      -26.4054711385  TIP3      11060           0.0000000000
     58097     11261  TIP3      OH2           -21.8630489332       25.8472509850      -25.1582584640  TIP3      11061           0.0000000000
     58098     11261  TIP3      H1            -22.5661431771       25.3681265388      -24.7278709418  TIP3      11061           0.0000000000
     58099     11261  TIP3      H2            -21.1881507868       26.0111602160      -24.4581375000  TIP3      11061           0.0000000000
     58100     11262  TIP3      OH2           -22.0987020286       28.5484303633      -20.2817315753  TIP3      11062           0.0000000000
     58101     11262  TIP3      H1            -21.2497706327       28.0861128669      -20.4474907684  TIP3      11062           0.0000000000
     58102     11262  TIP3      H2            -21.8857976560       29.4619096309      -20.3436973414  TIP3      11062           0.0000000000
     58103     11263  TIP3      OH2           -21.5161985763       25.6757157516      -28.7714603364  TIP3      11063           0.0000000000
     58104     11263  TIP3      H1            -22.0778574484       26.0121240488      -29.5031197654  TIP3      11063           0.0000000000
     58105     11263  TIP3      H2            -21.6095677006       26.4012356084      -28.1301795922  TIP3      11063           0.0000000000
     58106     11264  TIP3      OH2           -23.1630030241       22.8989430184      -30.2475406998  TIP3      11064           0.0000000000
     58107     11264  TIP3      H1            -23.0617687641       23.5872210934      -30.9255277375  TIP3      11064           0.0000000000
     58108     11264  TIP3      H2            -23.3103686185       22.1006936677      -30.7741003513  TIP3      11064           0.0000000000
     58109     11265  TIP3      OH2           -23.9116705884       20.2409074516      -31.1847279193  TIP3      11065           0.0000000000
     58110     11265  TIP3      H1            -23.2818649107       19.9956858547      -30.4666281777  TIP3      11065           0.0000000000
     58111     11265  TIP3      H2            -24.7833058203       20.1391264055      -30.7650220539  TIP3      11065           0.0000000000
     58112     11266  TIP3      OH2           -24.3246276773       21.9586687890      -26.1540494435  TIP3      11066           0.0000000000
     58113     11266  TIP3      H1            -24.0464595017       21.0168718770      -26.0518345702  TIP3      11066           0.0000000000
     58114     11266  TIP3      H2            -23.5145340493       22.3133885829      -26.5339687882  TIP3      11066           0.0000000000
     58115     11267  TIP3      OH2           -23.6443988772       19.2115553051      -26.0872351729  TIP3      11067           0.0000000000
     58116     11267  TIP3      H1            -23.4277094531       18.7439029778      -25.2458714487  TIP3      11067           0.0000000000
     58117     11267  TIP3      H2            -24.2587391089       18.5778526932      -26.5050304312  TIP3      11067           0.0000000000
     58118     11268  TIP3      OH2           -21.8495260270       19.2563707575      -29.5660571124  TIP3      11068           0.0000000000
     58119     11268  TIP3      H1            -21.4093158410       18.5245765799      -30.0544286994  TIP3      11068           0.0000000000
     58120     11268  TIP3      H2            -21.1179188767       19.8905448572      -29.4673896484  TIP3      11068           0.0000000000
     58121     11269  TIP3      OH2           -39.4952064029       19.2760757976      -26.5136673922  TIP3      11069           0.0000000000
     58122     11269  TIP3      H1            -40.4369380879       19.4515647045      -26.6052642111  TIP3      11069           0.0000000000
     58123     11269  TIP3      H2            -39.0563494745       19.7913624656      -27.2127043756  TIP3      11069           0.0000000000
     58124     11270  TIP3      OH2           -24.7768124938       34.2033061558      -24.4793891055  TIP3      11070           0.0000000000
     58125     11270  TIP3      H1            -24.0933055976       33.9389696938      -25.1198991605  TIP3      11070           0.0000000000
     58126     11270  TIP3      H2            -24.2860362223       34.7264592878      -23.8268373609  TIP3      11070           0.0000000000
     58127     11271  TIP3      OH2           -35.4655173777       32.6779712172      -22.1345820404  TIP3      11071           0.0000000000
     58128     11271  TIP3      H1            -35.6231779506       31.7641339722      -21.8492413845  TIP3      11071           0.0000000000
     58129     11271  TIP3      H2            -34.6270486248       32.8655103268      -21.6507516190  TIP3      11071           0.0000000000
     58130     11272  TIP3      OH2           -32.9759877444       33.2423066110      -21.1049420253  TIP3      11072           0.0000000000
     58131     11272  TIP3      H1            -32.6274890549       32.4211757005      -21.5030112487  TIP3      11072           0.0000000000
     58132     11272  TIP3      H2            -32.8090068711       33.1368826991      -20.1612480619  TIP3      11072           0.0000000000
     58133     11273  TIP3      OH2           -29.4328355835       18.8272900463      -22.1413781390  TIP3      11073           0.0000000000
     58134     11273  TIP3      H1            -30.0782126283       18.2190027217      -21.7772526244  TIP3      11073           0.0000000000
     58135     11273  TIP3      H2            -28.8454419995       18.2821008755      -22.6769565670  TIP3      11073           0.0000000000
     58136     11274  TIP3      OH2           -22.6146837690       18.1415656348      -23.7804594959  TIP3      11074           0.0000000000
     58137     11274  TIP3      H1            -21.9235346347       17.5535737328      -24.1534758420  TIP3      11074           0.0000000000
     58138     11274  TIP3      H2            -22.1113794302       18.9648931646      -23.6371273641  TIP3      11074           0.0000000000
     58139     11275  TIP3      OH2           -37.0566438603       17.5116130163      -24.2613941328  TIP3      11075           0.0000000000
     58140     11275  TIP3      H1            -37.8465543554       17.3033319049      -24.7965540071  TIP3      11075           0.0000000000
     58141     11275  TIP3      H2            -36.5704263878       16.6677783368      -24.3074311822  TIP3      11075           0.0000000000
     58142     11276  TIP3      OH2           -38.3287009901       17.2173220989      -28.5357963640  TIP3      11076           0.0000000000
     58143     11276  TIP3      H1            -37.7873773200       17.8527829861      -29.0464120315  TIP3      11076           0.0000000000
     58144     11276  TIP3      H2            -38.8296862467       17.8105588202      -27.9532166219  TIP3      11076           0.0000000000
     58145     11277  TIP3      OH2           -32.5377102771       17.3315721568      -24.4436691295  TIP3      11077           0.0000000000
     58146     11277  TIP3      H1            -31.6823637525       17.7959218484      -24.5171521234  TIP3      11077           0.0000000000
     58147     11277  TIP3      H2            -32.6397382676       17.2219502251      -23.4927124631  TIP3      11077           0.0000000000
     58148     11278  TIP3      OH2           -25.5972082556       17.4717141924      -27.1615108243  TIP3      11078           0.0000000000
     58149     11278  TIP3      H1            -26.3634106860       18.0597754405      -27.2839667252  TIP3      11078           0.0000000000
     58150     11278  TIP3      H2            -26.0420162439       16.6247344103      -26.9127008303  TIP3      11078           0.0000000000
     58151     11279  TIP3      OH2           -38.3744975007       33.1693089964      -27.5194156979  TIP3      11079           0.0000000000
     58152     11279  TIP3      H1            -39.0473269140       33.1949795656      -28.2031627938  TIP3      11079           0.0000000000
     58153     11279  TIP3      H2            -38.3471060853       34.1125097199      -27.2845737849  TIP3      11079           0.0000000000
     58154     11280  TIP3      OH2           -36.4550660019       19.1656742886      -29.9970842125  TIP3      11080           0.0000000000
     58155     11280  TIP3      H1            -35.8976485888       18.5633750565      -30.5174141118  TIP3      11080           0.0000000000
     58156     11280  TIP3      H2            -35.7869014711       19.4867760824      -29.3641877416  TIP3      11080           0.0000000000
     58157     11281  TIP3      OH2           -31.5952468828       19.4468957358      -27.4927834081  TIP3      11081           0.0000000000
     58158     11281  TIP3      H1            -31.1401846926       18.8642371181      -26.8718694662  TIP3      11081           0.0000000000
     58159     11281  TIP3      H2            -31.3305630522       20.3160922721      -27.1322622802  TIP3      11081           0.0000000000
     58160     11282  TIP3      OH2           -29.4952385146       34.4936554254      -29.1431429762  TIP3      11082           0.0000000000
     58161     11282  TIP3      H1            -28.5745502075       34.7159111084      -29.3619181173  TIP3      11082           0.0000000000
     58162     11282  TIP3      H2            -29.7171096301       33.9763651679      -29.9444552250  TIP3      11082           0.0000000000
     58163     11283  TIP3      OH2           -22.7544623946       33.9881253120      -26.4416621580  TIP3      11083           0.0000000000
     58164     11283  TIP3      H1            -23.0112040340       33.2142654898      -26.9929599134  TIP3      11083           0.0000000000
     58165     11283  TIP3      H2            -22.8740654370       34.7440210522      -27.0565879524  TIP3      11083           0.0000000000
     58166     11284  TIP3      OH2           -36.5904904739       34.1543222423      -30.5529528136  TIP3      11084           0.0000000000
     58167     11284  TIP3      H1            -36.8091178590       34.4155540418      -29.6528942514  TIP3      11084           0.0000000000
     58168     11284  TIP3      H2            -35.7846910406       33.6192732992      -30.3999811570  TIP3      11084           0.0000000000
     58169     11285  TIP3      OH2            -9.1272765211       26.6308874071      -24.3517356036  TIP3      11085           0.0000000000
     58170     11285  TIP3      H1             -9.1093335984       27.6145286905      -24.4082811401  TIP3      11085           0.0000000000
     58171     11285  TIP3      H2             -9.8394189178       26.3968884139      -24.9786714258  TIP3      11085           0.0000000000
     58172     11286  TIP3      OH2            -6.5535236861       28.8492590058      -22.5983075212  TIP3      11086           0.0000000000
     58173     11286  TIP3      H1             -6.9732045736       28.1500051810      -22.0923524693  TIP3      11086           0.0000000000
     58174     11286  TIP3      H2             -6.4952318511       29.5491771864      -21.9101534024  TIP3      11086           0.0000000000
     58175     11287  TIP3      OH2           -20.4331472090       23.5185385119      -25.2647977914  TIP3      11087           0.0000000000
     58176     11287  TIP3      H1            -20.6980005289       24.4396724376      -25.4561584745  TIP3      11087           0.0000000000
     58177     11287  TIP3      H2            -20.8856074407       23.0141789225      -25.9527926460  TIP3      11087           0.0000000000
     58178     11288  TIP3      OH2           -19.7035869207       25.7444511221      -23.2661914497  TIP3      11088           0.0000000000
     58179     11288  TIP3      H1            -19.3596037208       25.0174422129      -22.7073000656  TIP3      11088           0.0000000000
     58180     11288  TIP3      H2            -18.8849366184       25.9287334277      -23.7701509649  TIP3      11088           0.0000000000
     58181     11289  TIP3      OH2            -9.3607959349       34.0475375086      -22.2623294639  TIP3      11089           0.0000000000
     58182     11289  TIP3      H1             -8.8216726018       33.3023716715      -22.6340339219  TIP3      11089           0.0000000000
     58183     11289  TIP3      H2             -9.6664496510       33.5940020229      -21.4768737337  TIP3      11089           0.0000000000
     58184     11290  TIP3      OH2            -8.7564711552       22.7735712281      -20.1647444259  TIP3      11090           0.0000000000
     58185     11290  TIP3      H1             -8.4905934450       21.8405122900      -20.0679823853  TIP3      11090           0.0000000000
     58186     11290  TIP3      H2             -8.7799536641       22.8717510495      -21.1360226026  TIP3      11090           0.0000000000
     58187     11291  TIP3      OH2            -7.8616452247       20.9101863596      -24.5406262729  TIP3      11091           0.0000000000
     58188     11291  TIP3      H1             -7.2324465276       20.5968389599      -23.8515380066  TIP3      11091           0.0000000000
     58189     11291  TIP3      H2             -7.2796129040       21.4941705570      -25.0409981225  TIP3      11091           0.0000000000
     58190     11292  TIP3      OH2           -19.0098207663       23.1829463974      -22.1345966510  TIP3      11092           0.0000000000
     58191     11292  TIP3      H1            -18.2718124639       22.7671087110      -21.6824992440  TIP3      11092           0.0000000000
     58192     11292  TIP3      H2            -18.8447668535       22.9466176724      -23.0653647961  TIP3      11092           0.0000000000
     58193     11293  TIP3      OH2           -13.6750207207       24.7577543651      -22.9474425004  TIP3      11093           0.0000000000
     58194     11293  TIP3      H1            -13.1999369944       24.1967213432      -22.3533976242  TIP3      11093           0.0000000000
     58195     11293  TIP3      H2            -14.3703530312       24.1692998566      -23.2983514442  TIP3      11093           0.0000000000
     58196     11294  TIP3      OH2            -9.3868586110       29.2025153644      -25.2883413355  TIP3      11094           0.0000000000
     58197     11294  TIP3      H1             -9.6860041764       28.9118474872      -26.1560254949  TIP3      11094           0.0000000000
     58198     11294  TIP3      H2             -9.6993562535       30.1349535252      -25.2416399293  TIP3      11094           0.0000000000
     58199     11295  TIP3      OH2            -6.0195373326       20.2653190577      -22.5269537268  TIP3      11095           0.0000000000
     58200     11295  TIP3      H1             -6.3212767380       19.5380253943      -21.9474203761  TIP3      11095           0.0000000000
     58201     11295  TIP3      H2             -5.4180813754       20.6784287724      -21.9094978520  TIP3      11095           0.0000000000
     58202     11296  TIP3      OH2           -19.6374973571       28.9981875837      -26.9820210748  TIP3      11096           0.0000000000
     58203     11296  TIP3      H1            -19.8984761573       29.3354461008      -27.8474933838  TIP3      11096           0.0000000000
     58204     11296  TIP3      H2            -19.5474835481       29.8126988342      -26.4441105038  TIP3      11096           0.0000000000
     58205     11297  TIP3      OH2            -6.0561167081       30.6633015776      -20.3755619611  TIP3      11097           0.0000000000
     58206     11297  TIP3      H1             -6.9762030070       30.7370169456      -20.0776260080  TIP3      11097           0.0000000000
     58207     11297  TIP3      H2             -5.7467929510       31.5771066744      -20.3220084828  TIP3      11097           0.0000000000
     58208     11298  TIP3      OH2            -7.7864466741       32.4666160628      -23.6488478113  TIP3      11098           0.0000000000
     58209     11298  TIP3      H1             -7.3472272879       31.7292571530      -24.1245082153  TIP3      11098           0.0000000000
     58210     11298  TIP3      H2             -7.3237155562       33.2367721794      -24.0399644645  TIP3      11098           0.0000000000
     58211     11299  TIP3      OH2            -6.5777573498       30.3712115674      -25.1109757714  TIP3      11099           0.0000000000
     58212     11299  TIP3      H1             -6.8680674014       29.6683835691      -25.7120364560  TIP3      11099           0.0000000000
     58213     11299  TIP3      H2             -6.5265811785       29.8918251454      -24.2577683045  TIP3      11099           0.0000000000
     58214     11300  TIP3      OH2           -10.4325584731       25.8693161150      -26.8212730286  TIP3      11100           0.0000000000
     58215     11300  TIP3      H1            -11.1399165304       26.4272214451      -27.1997059665  TIP3      11100           0.0000000000
     58216     11300  TIP3      H2             -9.7429955604       25.9548853846      -27.5035588410  TIP3      11100           0.0000000000
     58217     11301  TIP3      OH2           -10.3688195517       24.4299960285      -29.8496753709  TIP3      11101           0.0000000000
     58218     11301  TIP3      H1             -9.6634537948       24.4112326595      -29.1856714495  TIP3      11101           0.0000000000
     58219     11301  TIP3      H2            -10.0633593736       23.7103980412      -30.4172804716  TIP3      11101           0.0000000000
     58220     11302  TIP3      OH2            -6.9829979620       26.0852585810      -25.9298703995  TIP3      11102           0.0000000000
     58221     11302  TIP3      H1             -7.7564964854       26.2998628452      -25.3480582575  TIP3      11102           0.0000000000
     58222     11302  TIP3      H2             -6.5333386855       25.3782823827      -25.4521657188  TIP3      11102           0.0000000000
     58223     11303  TIP3      OH2           -15.7354153024       26.0749800731      -24.1384943072  TIP3      11103           0.0000000000
     58224     11303  TIP3      H1            -15.6434002285       26.1886951006      -25.0919659224  TIP3      11103           0.0000000000
     58225     11303  TIP3      H2            -14.8127921135       26.0311823586      -23.7858900957  TIP3      11103           0.0000000000
     58226     11304  TIP3      OH2           -13.8721885256       30.5318093111      -21.2149449637  TIP3      11104           0.0000000000
     58227     11304  TIP3      H1            -14.1753426475       29.8663853720      -21.8854477439  TIP3      11104           0.0000000000
     58228     11304  TIP3      H2            -13.2882190532       29.8921889038      -20.7923088849  TIP3      11104           0.0000000000
     58229     11305  TIP3      OH2            -8.1251718960       25.2764843535      -28.2725163512  TIP3      11105           0.0000000000
     58230     11305  TIP3      H1             -7.5667453099       25.4515424039      -27.4784698215  TIP3      11105           0.0000000000
     58231     11305  TIP3      H2             -7.6736779729       25.7672656451      -28.9965784621  TIP3      11105           0.0000000000
     58232     11306  TIP3      OH2           -10.4108438792       31.9770524211      -24.7829869091  TIP3      11106           0.0000000000
     58233     11306  TIP3      H1             -9.9963271196       32.2886362424      -23.9706099967  TIP3      11106           0.0000000000
     58234     11306  TIP3      H2            -10.9645914768       32.7247473250      -25.0408118632  TIP3      11106           0.0000000000
     58235     11307  TIP3      OH2            -4.3963243675       17.0025094265      -28.3616230418  TIP3      11107           0.0000000000
     58236     11307  TIP3      H1             -5.3457498753       17.1175824975      -28.1245897698  TIP3      11107           0.0000000000
     58237     11307  TIP3      H2             -4.1950243179       17.8453076857      -28.8039568549  TIP3      11107           0.0000000000
     58238     11308  TIP3      OH2           -16.3739986009       25.6956266634      -26.6606538233  TIP3      11108           0.0000000000
     58239     11308  TIP3      H1            -16.7454701625       26.5564849524      -26.9238687974  TIP3      11108           0.0000000000
     58240     11308  TIP3      H2            -17.1165183073       25.0939449014      -26.6239799067  TIP3      11108           0.0000000000
     58241     11309  TIP3      OH2            -3.2874123440       31.3557827163      -30.0195352651  TIP3      11109           0.0000000000
     58242     11309  TIP3      H1             -3.1210016323       32.2987870159      -29.8493036013  TIP3      11109           0.0000000000
     58243     11309  TIP3      H2             -2.3643662723       31.0418451609      -30.0210232182  TIP3      11109           0.0000000000
     58244     11310  TIP3      OH2           -10.8995324262       34.9163568109      -26.3907412305  TIP3      11110           0.0000000000
     58245     11310  TIP3      H1            -11.0459427181       34.8315925545      -27.3496751787  TIP3      11110           0.0000000000
     58246     11310  TIP3      H2            -10.9389978484       35.8750289858      -26.2332987510  TIP3      11110           0.0000000000
     58247     11311  TIP3      OH2           -17.2748050989       33.7725268086      -24.5853401693  TIP3      11111           0.0000000000
     58248     11311  TIP3      H1            -17.1134945691       33.3618333164      -23.7020768582  TIP3      11111           0.0000000000
     58249     11311  TIP3      H2            -18.1277061903       33.3767576152      -24.8160628296  TIP3      11111           0.0000000000
     58250     11312  TIP3      OH2            -7.8723801628       34.1258565576      -29.4151157492  TIP3      11112           0.0000000000
     58251     11312  TIP3      H1             -7.4229080953       33.3624038976      -29.8422377428  TIP3      11112           0.0000000000
     58252     11312  TIP3      H2             -7.8381457466       33.8637073855      -28.4669065322  TIP3      11112           0.0000000000
     58253     11313  TIP3      OH2            -8.1786833326       34.0735444337      -26.6319380544  TIP3      11113           0.0000000000
     58254     11313  TIP3      H1             -9.1430515729       34.1313356228      -26.4560132587  TIP3      11113           0.0000000000
     58255     11313  TIP3      H2             -7.9464408679       33.3214223922      -26.0626479976  TIP3      11113           0.0000000000
     58256     11314  TIP3      OH2            -6.6704712279       26.2967716071      -30.4514547001  TIP3      11114           0.0000000000
     58257     11314  TIP3      H1             -6.6974705764       26.1115200107      -31.4186189376  TIP3      11114           0.0000000000
     58258     11314  TIP3      H2             -5.8155291840       26.7493810705      -30.4043042475  TIP3      11114           0.0000000000
     58259     11315  TIP3      OH2           -11.0810966999       20.2267860421      -29.9462080037  TIP3      11115           0.0000000000
     58260     11315  TIP3      H1            -11.3957970039       20.1628854597      -29.0260132379  TIP3      11115           0.0000000000
     58261     11315  TIP3      H2            -11.3888138202       19.3497588356      -30.2534688686  TIP3      11115           0.0000000000
     58262     11316  TIP3      OH2           -15.2939465229       22.9923622157      -24.5314429253  TIP3      11116           0.0000000000
     58263     11316  TIP3      H1            -16.2409294154       22.7811069647      -24.6237930028  TIP3      11116           0.0000000000
     58264     11316  TIP3      H2            -14.9257453849       22.7377617895      -25.3958547947  TIP3      11116           0.0000000000
     58265     11317  TIP3      OH2            -9.7912809464       23.5749046571      -25.7158127511  TIP3      11117           0.0000000000
     58266     11317  TIP3      H1            -10.1867278361       24.3887769551      -26.1030762575  TIP3      11117           0.0000000000
     58267     11317  TIP3      H2             -9.1089576010       23.3937815365      -26.3784869874  TIP3      11117           0.0000000000
     58268     11318  TIP3      OH2            -8.8047047752       23.0485683783      -22.9189881282  TIP3      11118           0.0000000000
     58269     11318  TIP3      H1             -9.0200145243       23.6319362078      -23.6525071414  TIP3      11118           0.0000000000
     58270     11318  TIP3      H2             -8.6543354323       22.2152549400      -23.4093599989  TIP3      11118           0.0000000000
     58271     11319  TIP3      OH2           -14.2705199077       20.5915099942      -30.8293830010  TIP3      11119           0.0000000000
     58272     11319  TIP3      H1            -14.7248710791       20.1726833616      -30.0701067867  TIP3      11119           0.0000000000
     58273     11319  TIP3      H2            -14.9802003717       21.0242344653      -31.3195087736  TIP3      11119           0.0000000000
     58274     11320  TIP3      OH2           -20.9383609293       20.4034777961      -23.7969870917  TIP3      11120           0.0000000000
     58275     11320  TIP3      H1            -20.3589919438       20.2545823201      -23.0212795725  TIP3      11120           0.0000000000
     58276     11320  TIP3      H2            -20.5183914192       19.8788849285      -24.5045565615  TIP3      11120           0.0000000000
     58277     11321  TIP3      OH2           -19.7165845121       21.0154217364      -28.3550054435  TIP3      11121           0.0000000000
     58278     11321  TIP3      H1            -19.2039032489       21.6325326090      -28.9088777198  TIP3      11121           0.0000000000
     58279     11321  TIP3      H2            -20.4009952526       21.6305898513      -28.0261125250  TIP3      11121           0.0000000000
     58280     11322  TIP3      OH2           -12.7060993355       20.4860939067      -23.4801869649  TIP3      11122           0.0000000000
     58281     11322  TIP3      H1            -13.6275899424       20.6910094029      -23.2710939900  TIP3      11122           0.0000000000
     58282     11322  TIP3      H2            -12.2412855375       20.5714474981      -22.6486590453  TIP3      11122           0.0000000000
     58283     11323  TIP3      OH2           -17.9671382722       22.1141884740      -24.6040779993  TIP3      11123           0.0000000000
     58284     11323  TIP3      H1            -18.8155131611       22.3013243338      -25.0499803208  TIP3      11123           0.0000000000
     58285     11323  TIP3      H2            -17.6165796164       21.3248218540      -25.0571190334  TIP3      11123           0.0000000000
     58286     11324  TIP3      OH2           -14.3036840463       22.1998176337      -27.0052817312  TIP3      11124           0.0000000000
     58287     11324  TIP3      H1            -13.3497323678       22.3192355036      -26.8443172672  TIP3      11124           0.0000000000
     58288     11324  TIP3      H2            -14.5443916918       22.8947387405      -27.6470534418  TIP3      11124           0.0000000000
     58289     11325  TIP3      OH2           -15.5886847014       23.3757262125      -29.4223190385  TIP3      11125           0.0000000000
     58290     11325  TIP3      H1            -16.1218380836       22.9955064405      -30.1368466802  TIP3      11125           0.0000000000
     58291     11325  TIP3      H2            -14.7713845294       23.5972198579      -29.8927191385  TIP3      11125           0.0000000000
     58292     11326  TIP3      OH2           -16.4204179350       19.5005991498      -25.1199085498  TIP3      11126           0.0000000000
     58293     11326  TIP3      H1            -16.7738777418       18.5940297295      -25.1892598841  TIP3      11126           0.0000000000
     58294     11326  TIP3      H2            -15.6763155092       19.4609104351      -25.7350716570  TIP3      11126           0.0000000000
     58295     11327  TIP3      OH2           -12.2253701417       27.9059497073      -27.5026520555  TIP3      11127           0.0000000000
     58296     11327  TIP3      H1            -13.0447175514       27.4580400036      -27.8126564355  TIP3      11127           0.0000000000
     58297     11327  TIP3      H2            -12.4630851617       28.0422019656      -26.5488974657  TIP3      11127           0.0000000000
     58298     11328  TIP3      OH2            -8.4119951236       20.7332511835      -29.3172119277  TIP3      11128           0.0000000000
     58299     11328  TIP3      H1             -9.3633183422       20.8908464837      -29.4527874350  TIP3      11128           0.0000000000
     58300     11328  TIP3      H2             -8.0691020442       21.5848571057      -28.9666513579  TIP3      11128           0.0000000000
     58301     11329  TIP3      OH2            -7.6689750654       22.6527004063      -27.7082974647  TIP3      11129           0.0000000000
     58302     11329  TIP3      H1             -6.7942311534       22.5206164963      -27.2865496306  TIP3      11129           0.0000000000
     58303     11329  TIP3      H2             -7.5636114461       23.4873415852      -28.1925091311  TIP3      11129           0.0000000000
     58304     11330  TIP3      OH2           -17.3876758428       27.0692754278      -21.7675086590  TIP3      11130           0.0000000000
     58305     11330  TIP3      H1            -16.5519044947       27.3409210304      -22.2492345778  TIP3      11130           0.0000000000
     58306     11330  TIP3      H2            -16.9557325846       26.4018668278      -21.2285850821  TIP3      11130           0.0000000000
     58307     11331  TIP3      OH2           -10.1474403750       29.3932525301      -28.4598494215  TIP3      11131           0.0000000000
     58308     11331  TIP3      H1            -10.4918313291       30.2363963881      -28.0987896813  TIP3      11131           0.0000000000
     58309     11331  TIP3      H2            -10.8740844917       28.7719216107      -28.2346603084  TIP3      11131           0.0000000000
     58310     11332  TIP3      OH2            -2.7687809385       22.7891318759      -27.9203886276  TIP3      11132           0.0000000000
     58311     11332  TIP3      H1             -3.3435063731       22.5115441955      -28.6578148601  TIP3      11132           0.0000000000
     58312     11332  TIP3      H2             -2.6906868698       23.7403117950      -28.1548727046  TIP3      11132           0.0000000000
     58313     11333  TIP3      OH2            -4.4931947693       31.6307960269      -27.5078671839  TIP3      11133           0.0000000000
     58314     11333  TIP3      H1             -4.8498909374       30.7971707282      -27.1731178582  TIP3      11133           0.0000000000
     58315     11333  TIP3      H2             -4.1587730735       31.4114188347      -28.3931201465  TIP3      11133           0.0000000000
     58316     11334  TIP3      OH2           -14.7203371359       30.7870478087      -24.4552995289  TIP3      11134           0.0000000000
     58317     11334  TIP3      H1            -14.2603223432       31.6324735314      -24.5016338104  TIP3      11134           0.0000000000
     58318     11334  TIP3      H2            -15.6458637666       31.0019239311      -24.5850921729  TIP3      11134           0.0000000000
     58319     11335  TIP3      OH2           -18.9812373248       25.6010064383      -29.7317932972  TIP3      11135           0.0000000000
     58320     11335  TIP3      H1            -18.4006996269       26.2516743459      -29.2942109753  TIP3      11135           0.0000000000
     58321     11335  TIP3      H2            -19.8759108694       25.9035818543      -29.4783335676  TIP3      11135           0.0000000000
     58322     11336  TIP3      OH2           -13.3540582297       28.4309099684      -25.0284601490  TIP3      11136           0.0000000000
     58323     11336  TIP3      H1            -13.5861038079       29.3237944821      -24.6881572739  TIP3      11136           0.0000000000
     58324     11336  TIP3      H2            -13.9369214726       28.0061879998      -24.3493655937  TIP3      11136           0.0000000000
     58325     11337  TIP3      OH2           -14.6371672144       33.4802143568      -25.2990511450  TIP3      11137           0.0000000000
     58326     11337  TIP3      H1            -15.6018552630       33.5493166687      -25.1319564988  TIP3      11137           0.0000000000
     58327     11337  TIP3      H2            -14.2957819838       34.2829438244      -24.8705433608  TIP3      11137           0.0000000000
     58328     11338  TIP3      OH2            -7.0266481561       29.6978033244      -29.6669625950  TIP3      11138           0.0000000000
     58329     11338  TIP3      H1             -6.7322813593       29.2218957745      -28.8636848811  TIP3      11138           0.0000000000
     58330     11338  TIP3      H2             -7.9803084803       29.5121067484      -29.5874532670  TIP3      11138           0.0000000000
     58331     11339  TIP3      OH2            -2.5782936407       34.0460867394      -29.4142325495  TIP3      11139           0.0000000000
     58332     11339  TIP3      H1             -1.8793002154       34.6931875926      -29.6295733986  TIP3      11139           0.0000000000
     58333     11339  TIP3      H2             -3.2978343708       34.6603643331      -29.1345078453  TIP3      11139           0.0000000000
     58334     11340  TIP3      OH2            -6.2465643519       28.3353312266      -27.4337507890  TIP3      11140           0.0000000000
     58335     11340  TIP3      H1             -6.4912074261       27.5500926603      -26.9007233408  TIP3      11140           0.0000000000
     58336     11340  TIP3      H2             -5.2955014531       28.3732660636      -27.2471731176  TIP3      11140           0.0000000000
     58337     11341  TIP3      OH2           -12.8988972366       30.7682312059      -31.1705823397  TIP3      11141           0.0000000000
     58338     11341  TIP3      H1            -12.7968536073       30.0025962194      -31.7621234291  TIP3      11141           0.0000000000
     58339     11341  TIP3      H2            -13.3435517755       30.3359465968      -30.4083782483  TIP3      11141           0.0000000000
     58340     11342  TIP3      OH2           -14.1400593720       30.2882171952      -28.7031560819  TIP3      11142           0.0000000000
     58341     11342  TIP3      H1            -13.8664331514       29.7811680882      -27.9243477686  TIP3      11142           0.0000000000
     58342     11342  TIP3      H2            -14.0387567036       31.2187102015      -28.3945958775  TIP3      11142           0.0000000000
     58343     11343  TIP3      OH2           -17.6179926467       27.5478746947      -28.2805249334  TIP3      11143           0.0000000000
     58344     11343  TIP3      H1            -18.2890987134       27.9263751952      -27.6795716502  TIP3      11143           0.0000000000
     58345     11343  TIP3      H2            -17.0591640441       28.3086074551      -28.5129932130  TIP3      11143           0.0000000000
     58346     11344  TIP3      OH2            -9.0172751700       19.7899321397      -26.8367038715  TIP3      11144           0.0000000000
     58347     11344  TIP3      H1             -8.7847239750       20.2571100102      -27.6610175492  TIP3      11144           0.0000000000
     58348     11344  TIP3      H2             -8.4443503023       20.2426624812      -26.1995926491  TIP3      11144           0.0000000000
     58349     11345  TIP3      OH2           -11.3231586953       31.9561266547      -28.0217903388  TIP3      11145           0.0000000000
     58350     11345  TIP3      H1            -12.1420469272       32.4872183764      -27.9531364338  TIP3      11145           0.0000000000
     58351     11345  TIP3      H2            -10.7870309568       32.5082003324      -28.6092704123  TIP3      11145           0.0000000000
     58352     11346  TIP3      OH2           -11.7716955977       21.5513854933      -26.0171398761  TIP3      11146           0.0000000000
     58353     11346  TIP3      H1            -10.9923723855       22.1375193251      -25.9473559023  TIP3      11146           0.0000000000
     58354     11346  TIP3      H2            -12.0435498719       21.4436966786      -25.0950057161  TIP3      11146           0.0000000000
     58355     11347  TIP3      OH2           -10.9098054686       18.6092182443      -25.0958112222  TIP3      11147           0.0000000000
     58356     11347  TIP3      H1            -11.2584498120       19.3033919907      -24.5279613312  TIP3      11147           0.0000000000
     58357     11347  TIP3      H2            -10.2382554117       19.1334020826      -25.5989759350  TIP3      11147           0.0000000000
     58358     11348  TIP3      OH2           -13.9161153024       32.9944880799      -27.9961325428  TIP3      11148           0.0000000000
     58359     11348  TIP3      H1            -13.8304769804       33.8115019464      -28.5466216053  TIP3      11148           0.0000000000
     58360     11348  TIP3      H2            -14.1959909740       33.3541670815      -27.1236798029  TIP3      11148           0.0000000000
     58361     11349  TIP3      OH2           -15.2764542449       19.7120825070      -28.4197589936  TIP3      11149           0.0000000000
     58362     11349  TIP3      H1            -15.3268675799       20.6098535576      -28.0328024487  TIP3      11149           0.0000000000
     58363     11349  TIP3      H2            -14.3683381409       19.4679656244      -28.1508412086  TIP3      11149           0.0000000000
     58364     11350  TIP3      OH2           -17.0649270137       30.1756427908      -29.4109019360  TIP3      11150           0.0000000000
     58365     11350  TIP3      H1            -16.3700446189       30.7584434758      -29.0533165612  TIP3      11150           0.0000000000
     58366     11350  TIP3      H2            -16.4992211136       29.6725900561      -30.0366045876  TIP3      11150           0.0000000000
     58367     11351  TIP3      OH2           -18.6957008902       22.8298462931      -30.2268688407  TIP3      11151           0.0000000000
     58368     11351  TIP3      H1            -18.6702729987       23.7884882428      -30.0225233798  TIP3      11151           0.0000000000
     58369     11351  TIP3      H2            -19.5879138590       22.6593248393      -30.5324531701  TIP3      11151           0.0000000000
     58370     11352  TIP3      OH2            -5.4168198887       33.5539308469      -20.2391192130  TIP3      11152           0.0000000000
     58371     11352  TIP3      H1             -5.4421491648       34.1291938232      -21.0199742248  TIP3      11152           0.0000000000
     58372     11352  TIP3      H2             -4.4654083219       33.4839834129      -20.0419906303  TIP3      11152           0.0000000000
     58373     11353  TIP3      OH2           -18.9660625921       31.5425918342      -25.3615395843  TIP3      11153           0.0000000000
     58374     11353  TIP3      H1            -19.7986980543       32.0220149754      -25.4326641095  TIP3      11153           0.0000000000
     58375     11353  TIP3      H2            -18.4431241950       31.9986884516      -26.0406961201  TIP3      11153           0.0000000000
     58376     11354  TIP3      OH2           -10.9056598967       32.6179705668      -31.0503646061  TIP3      11154           0.0000000000
     58377     11354  TIP3      H1            -11.5979132977       31.9585302208      -30.8225987011  TIP3      11154           0.0000000000
     58378     11354  TIP3      H2            -10.1873814997       32.0182682254      -31.2964441240  TIP3      11154           0.0000000000
     58379     11355  TIP3      OH2            -6.3526755200       32.3371330132      -30.8577615239  TIP3      11155           0.0000000000
     58380     11355  TIP3      H1             -6.0385945110       31.5677371727      -30.3577466637  TIP3      11155           0.0000000000
     58381     11355  TIP3      H2             -5.5984632751       32.6016893401      -31.4061127665  TIP3      11155           0.0000000000
     58382     11356  TIP3      OH2           -15.4825019383       28.3099970187      -31.0362517314  TIP3      11156           0.0000000000
     58383     11356  TIP3      H1            -15.3268652174       27.5545366263      -30.4433087408  TIP3      11156           0.0000000000
     58384     11356  TIP3      H2            -14.7270556217       28.1868099832      -31.6445846153  TIP3      11156           0.0000000000
     58385     11357  TIP3      OH2           -10.0305691848       29.4116917435      -31.2666475876  TIP3      11157           0.0000000000
     58386     11357  TIP3      H1            -10.3004178075       29.4913933316      -30.3379558302  TIP3      11157           0.0000000000
     58387     11357  TIP3      H2            -10.2193839457       28.4541235938      -31.4117977021  TIP3      11157           0.0000000000
     58388     11358  TIP3      OH2           -14.2596384928       26.3266976173      -28.6259421126  TIP3      11158           0.0000000000
     58389     11358  TIP3      H1            -14.7590026951       25.7937200124      -27.9759883240  TIP3      11158           0.0000000000
     58390     11358  TIP3      H2            -13.9630228592       25.6421940068      -29.2685089842  TIP3      11158           0.0000000000
     58391     11359  TIP3      OH2           -13.1836128096       24.5421373477      -30.4144898847  TIP3      11159           0.0000000000
     58392     11359  TIP3      H1            -13.3431829889       24.4567129606      -31.3751422332  TIP3      11159           0.0000000000
     58393     11359  TIP3      H2            -12.2084771535       24.5968619519      -30.3482124262  TIP3      11159           0.0000000000
     58394     11360  TIP3      OH2            -3.8539735776       26.8608197809      -31.0069195899  TIP3      11160           0.0000000000
     58395     11360  TIP3      H1             -4.0437923673       26.4819578706      -31.8782014045  TIP3      11160           0.0000000000
     58396     11360  TIP3      H2             -3.7648394105       27.8246719380      -31.1922311355  TIP3      11160           0.0000000000
     58397     11361  TIP3      OH2           -13.3562316731       35.2458217730      -29.3445820109  TIP3      11161           0.0000000000
     58398     11361  TIP3      H1            -12.3887662603       35.3310437115      -29.2701060899  TIP3      11161           0.0000000000
     58399     11361  TIP3      H2            -13.4994096367       35.8585126103      -30.0778847609  TIP3      11161           0.0000000000
     58400     11362  TIP3      OH2           -19.7847585095       29.8477389361      -29.9155896920  TIP3      11162           0.0000000000
     58401     11362  TIP3      H1            -18.8210897562       29.8562891176      -29.6502517414  TIP3      11162           0.0000000000
     58402     11362  TIP3      H2            -19.7250682806       29.0997829430      -30.5702380217  TIP3      11162           0.0000000000
     58403     11363  TIP3      OH2           -20.9793534854       35.2278476384      -24.9219933950  TIP3      11163           0.0000000000
     58404     11363  TIP3      H1            -21.7277111021       34.7750278332      -25.3800793431  TIP3      11163           0.0000000000
     58405     11363  TIP3      H2            -20.7204525929       34.5699188543      -24.2509971257  TIP3      11163           0.0000000000
     58406     11364  TIP3      OH2           -20.2028374493       33.3635714256      -23.0513323647  TIP3      11164           0.0000000000
     58407     11364  TIP3      H1            -20.5180141455       32.4638065292      -22.9193656768  TIP3      11164           0.0000000000
     58408     11364  TIP3      H2            -19.9395215508       33.6689413187      -22.1742502686  TIP3      11164           0.0000000000
     58409     11365  TIP3      OH2            -3.3139228700       27.7839517122      -27.0517173541  TIP3      11165           0.0000000000
     58410     11365  TIP3      H1             -2.4519659660       28.1782340692      -26.8468945915  TIP3      11165           0.0000000000
     58411     11365  TIP3      H2             -3.3349931256       27.0659030380      -26.3810916606  TIP3      11165           0.0000000000
     58412     11366  TIP3      OH2            -2.9788810450       25.8636723515      -25.1723574686  TIP3      11166           0.0000000000
     58413     11366  TIP3      H1             -3.7136797676       25.3577091667      -24.7716540578  TIP3      11166           0.0000000000
     58414     11366  TIP3      H2             -2.3518360188       26.0122706685      -24.4315899225  TIP3      11166           0.0000000000
     58415     11367  TIP3      OH2            -3.1617302539       28.5637874532      -20.3136592088  TIP3      11167           0.0000000000
     58416     11367  TIP3      H1             -2.2672304420       28.2696842095      -20.4785862331  TIP3      11167           0.0000000000
     58417     11367  TIP3      H2             -3.0961187627       29.5280552475      -20.2588919013  TIP3      11167           0.0000000000
     58418     11368  TIP3      OH2            -2.6601797187       25.6805748701      -28.7701289794  TIP3      11168           0.0000000000
     58419     11368  TIP3      H1             -3.2273758990       26.0207102735      -29.4944392625  TIP3      11168           0.0000000000
     58420     11368  TIP3      H2             -2.7610019302       26.3943737143      -28.1124049020  TIP3      11168           0.0000000000
     58421     11369  TIP3      OH2            -4.2913331861       22.9108205512      -30.2548395742  TIP3      11169           0.0000000000
     58422     11369  TIP3      H1             -4.2093156620       23.5733728045      -30.9516415484  TIP3      11169           0.0000000000
     58423     11369  TIP3      H2             -4.4716632697       22.0867362428      -30.7506943569  TIP3      11169           0.0000000000
     58424     11370  TIP3      OH2            -5.0818440327       24.3037875563      -24.5505495798  TIP3      11170           0.0000000000
     58425     11370  TIP3      H1             -5.3105922645       23.3678879012      -24.6716385456  TIP3      11170           0.0000000000
     58426     11370  TIP3      H2             -5.5659415152       24.5578203107      -23.7647217607  TIP3      11170           0.0000000000
     58427     11371  TIP3      OH2           -20.1491909431       26.3980064340      -20.6032822901  TIP3      11171           0.0000000000
     58428     11371  TIP3      H1            -19.8945502486       26.3572903493      -21.5395482126  TIP3      11171           0.0000000000
     58429     11371  TIP3      H2            -19.2660359091       26.3319199311      -20.2044093732  TIP3      11171           0.0000000000
     58430     11372  TIP3      OH2            -5.0355247207       20.3850956637      -31.1231169578  TIP3      11172           0.0000000000
     58431     11372  TIP3      H1             -4.4484995781       19.9433160356      -30.4805797672  TIP3      11172           0.0000000000
     58432     11372  TIP3      H2             -5.9009475085       19.9665303762      -30.9720035791  TIP3      11172           0.0000000000
     58433     11373  TIP3      OH2            -5.4878602170       21.9268594874      -26.1559469304  TIP3      11173           0.0000000000
     58434     11373  TIP3      H1             -5.1859121716       20.9931534533      -26.0402525907  TIP3      11173           0.0000000000
     58435     11373  TIP3      H2             -4.6699318321       22.3161960361      -26.4997544744  TIP3      11173           0.0000000000
     58436     11374  TIP3      OH2            -4.8101262382       19.1985992880      -26.0842152680  TIP3      11174           0.0000000000
     58437     11374  TIP3      H1             -4.6246103635       18.7454970885      -25.2353433142  TIP3      11174           0.0000000000
     58438     11374  TIP3      H2             -5.4042605910       18.5646556203      -26.5353660222  TIP3      11174           0.0000000000
     58439     11375  TIP3      OH2           -19.1992574538       20.0071068197      -21.6230793620  TIP3      11175           0.0000000000
     58440     11375  TIP3      H1            -19.0074116370       19.1604198102      -21.1844855610  TIP3      11175           0.0000000000
     58441     11375  TIP3      H2            -18.9419071031       20.7338119697      -21.0464949201  TIP3      11175           0.0000000000
     58442     11376  TIP3      OH2            -2.9859389084       19.2346887476      -29.5395484239  TIP3      11176           0.0000000000
     58443     11376  TIP3      H1             -2.5732986018       18.5231290657      -30.0766993725  TIP3      11176           0.0000000000
     58444     11376  TIP3      H2             -2.2789444918       19.8964590209      -29.4885787935  TIP3      11176           0.0000000000
     58445     11377  TIP3      OH2           -20.6650189115       19.2729044882      -26.4053972081  TIP3      11177           0.0000000000
     58446     11377  TIP3      H1            -21.6050988346       19.4292691161      -26.5779291846  TIP3      11177           0.0000000000
     58447     11377  TIP3      H2            -20.2422673774       19.7651594775      -27.1256223528  TIP3      11177           0.0000000000
     58448     11378  TIP3      OH2            -5.9195698192       34.2276132156      -24.4759290601  TIP3      11178           0.0000000000
     58449     11378  TIP3      H1             -5.2534007767       33.9108904814      -25.1111324623  TIP3      11178           0.0000000000
     58450     11378  TIP3      H2             -5.3933833921       34.7274400170      -23.8462418304  TIP3      11178           0.0000000000
     58451     11379  TIP3      OH2           -16.6538494424       32.6785636245      -22.1750567607  TIP3      11179           0.0000000000
     58452     11379  TIP3      H1            -16.7703998446       31.7715119838      -21.8537325727  TIP3      11179           0.0000000000
     58453     11379  TIP3      H2            -15.8391650266       32.8714154009      -21.6533860889  TIP3      11179           0.0000000000
     58454     11380  TIP3      OH2           -14.0988609990       33.2172432602      -21.2339231041  TIP3      11180           0.0000000000
     58455     11380  TIP3      H1            -13.8278560769       32.2966695776      -21.4895551936  TIP3      11180           0.0000000000
     58456     11380  TIP3      H2            -14.0103235350       33.0803441231      -20.2865780686  TIP3      11180           0.0000000000
     58457     11381  TIP3      OH2            -5.3883861682       16.9215121678      -22.0016361305  TIP3      11181           0.0000000000
     58458     11381  TIP3      H1             -4.7928257418       17.5112674004      -22.4995251646  TIP3      11181           0.0000000000
     58459     11381  TIP3      H2             -6.2737447087       17.2701249698      -22.1847648264  TIP3      11181           0.0000000000
     58460     11382  TIP3      OH2            -3.7444427162       18.1483413337      -23.7537495314  TIP3      11182           0.0000000000
     58461     11382  TIP3      H1             -3.0674892564       17.5672191192      -24.1699243347  TIP3      11182           0.0000000000
     58462     11382  TIP3      H2             -3.2718867695       18.9976868558      -23.6598873909  TIP3      11182           0.0000000000
     58463     11383  TIP3      OH2           -18.1647472564       17.5153265189      -24.2751976355  TIP3      11183           0.0000000000
     58464     11383  TIP3      H1            -18.9829858538       17.2971037357      -24.7572587686  TIP3      11183           0.0000000000
     58465     11383  TIP3      H2            -17.7422445156       16.6372438536      -24.2529977218  TIP3      11183           0.0000000000
     58466     11384  TIP3      OH2           -19.4285025475       17.2385496911      -28.5143676949  TIP3      11184           0.0000000000
     58467     11384  TIP3      H1            -18.9315931821       17.8881001038      -29.0442827128  TIP3      11184           0.0000000000
     58468     11384  TIP3      H2            -19.9836326868       17.8102992613      -27.9600614942  TIP3      11184           0.0000000000
     58469     11385  TIP3      OH2           -13.7191598601       17.4595068797      -24.4167168531  TIP3      11185           0.0000000000
     58470     11385  TIP3      H1            -12.8059813889       17.7804558120      -24.5374964450  TIP3      11185           0.0000000000
     58471     11385  TIP3      H2            -13.7644055550       17.1571149957      -23.5168283311  TIP3      11185           0.0000000000
     58472     11386  TIP3      OH2            -8.0697439518       17.4708818979      -22.8264691459  TIP3      11186           0.0000000000
     58473     11386  TIP3      H1             -8.0302626259       17.5615553590      -23.7846801532  TIP3      11186           0.0000000000
     58474     11386  TIP3      H2             -8.3790074608       16.5512622249      -22.7355502859  TIP3      11186           0.0000000000
     58475     11387  TIP3      OH2            -6.7388500419       17.4514418082      -27.1523804054  TIP3      11187           0.0000000000
     58476     11387  TIP3      H1             -7.4880377241       18.0522294111      -27.2839765438  TIP3      11187           0.0000000000
     58477     11387  TIP3      H2             -7.1828976785       16.6083168396      -26.8955000324  TIP3      11187           0.0000000000
     58478     11388  TIP3      OH2           -19.5142540556       33.1794410475      -27.5248709764  TIP3      11188           0.0000000000
     58479     11388  TIP3      H1            -20.2418680940       33.2171818423      -28.1595785499  TIP3      11188           0.0000000000
     58480     11388  TIP3      H2            -19.4963657530       34.1174281322      -27.2803990240  TIP3      11188           0.0000000000
     58481     11389  TIP3      OH2           -17.5962710661       19.1920214123      -30.0052164166  TIP3      11189           0.0000000000
     58482     11389  TIP3      H1            -17.0678285581       18.5645656352      -30.5268028171  TIP3      11189           0.0000000000
     58483     11389  TIP3      H2            -16.9335981150       19.5011536485      -29.3581395947  TIP3      11189           0.0000000000
     58484     11390  TIP3      OH2           -12.5794691327       19.4324711945      -27.5901001995  TIP3      11190           0.0000000000
     58485     11390  TIP3      H1            -12.3166702032       18.8407186184      -26.8709042515  TIP3      11190           0.0000000000
     58486     11390  TIP3      H2            -12.4998093798       20.2948690088      -27.1248272403  TIP3      11190           0.0000000000
     58487     11391  TIP3      OH2           -10.6398210236       34.4941415221      -29.1466685529  TIP3      11191           0.0000000000
     58488     11391  TIP3      H1             -9.7186399002       34.7156589692      -29.3632592744  TIP3      11191           0.0000000000
     58489     11391  TIP3      H2            -10.8575374372       33.9753923103      -29.9491767966  TIP3      11191           0.0000000000
     58490     11392  TIP3      OH2            -3.9199764265       33.9975228391      -26.4267263342  TIP3      11192           0.0000000000
     58491     11392  TIP3      H1             -4.1363272782       33.2174710537      -26.9939916155  TIP3      11192           0.0000000000
     58492     11392  TIP3      H2             -4.0081252563       34.7355968908      -27.0680385026  TIP3      11192           0.0000000000
     58493     11393  TIP3      OH2           -17.7697907832       34.0926512990      -30.5435957723  TIP3      11193           0.0000000000
     58494     11393  TIP3      H1            -17.9586850962       34.4274333644      -29.6524557263  TIP3      11193           0.0000000000
     58495     11393  TIP3      H2            -16.9142207490       33.6340252627      -30.3967800673  TIP3      11193           0.0000000000
     58496     11394  TIP3      OH2             9.7554202016       26.6176196049      -24.3973502972  TIP3      11194           0.0000000000
     58497     11394  TIP3      H1              9.7292020058       27.5967885262      -24.3609802201  TIP3      11194           0.0000000000
     58498     11394  TIP3      H2              9.0098350893       26.3872940395      -24.9693862676  TIP3      11194           0.0000000000
     58499     11395  TIP3      OH2             8.5871169338       25.8932695679      -20.8320315638  TIP3      11195           0.0000000000
     58500     11395  TIP3      H1              8.6255555407       25.1921754553      -20.1816334669  TIP3      11195           0.0000000000
     58501     11395  TIP3      H2              8.3457688052       25.4185777274      -21.6382522257  TIP3      11195           0.0000000000
     58502     11396  TIP3      OH2            12.2582551019       28.8552699367      -22.6234487878  TIP3      11196           0.0000000000
     58503     11396  TIP3      H1             11.9482670559       28.0739539685      -22.1332412595  TIP3      11196           0.0000000000
     58504     11396  TIP3      H2             12.3208215022       29.5019650034      -21.9157178314  TIP3      11196           0.0000000000
     58505     11397  TIP3      OH2             1.9347624516       30.0258920890      -20.9032261252  TIP3      11197           0.0000000000
     58506     11397  TIP3      H1              1.5691907612       29.1408914990      -21.0830595939  TIP3      11197           0.0000000000
     58507     11397  TIP3      H2              2.8555796331       29.7832303276      -20.6650641271  TIP3      11197           0.0000000000
     58508     11398  TIP3      OH2            -1.5293571448       23.5192391889      -25.2317463122  TIP3      11198           0.0000000000
     58509     11398  TIP3      H1             -1.8414381516       24.4289247749      -25.4162103145  TIP3      11198           0.0000000000
     58510     11398  TIP3      H2             -2.0231678853       23.0374906771      -25.9149276462  TIP3      11198           0.0000000000
     58511     11399  TIP3      OH2            -0.8339866227       25.7570658927      -23.2099471919  TIP3      11199           0.0000000000
     58512     11399  TIP3      H1             -0.4741042387       25.0347194363      -22.7089900230  TIP3      11199           0.0000000000
     58513     11399  TIP3      H2             -0.0954534206       25.9158974431      -23.8248305513  TIP3      11199           0.0000000000
     58514     11400  TIP3      OH2             9.4700205954       33.9596654242      -22.4355344890  TIP3      11200           0.0000000000
     58515     11400  TIP3      H1             10.0840659772       33.2341242975      -22.6766604949  TIP3      11200           0.0000000000
     58516     11400  TIP3      H2              9.1977901737       33.7165074843      -21.5501376581  TIP3      11200           0.0000000000
     58517     11401  TIP3      OH2             3.4289175642       20.8900782902      -22.9758366257  TIP3      11201           0.0000000000
     58518     11401  TIP3      H1              3.3401116672       21.7536242795      -23.4076324288  TIP3      11201           0.0000000000
     58519     11401  TIP3      H2              2.9258057552       20.2768256370      -23.5535304419  TIP3      11201           0.0000000000
     58520     11402  TIP3      OH2            11.0090522949       20.9328733213      -24.5279642767  TIP3      11202           0.0000000000
     58521     11402  TIP3      H1             11.6223496207       20.6135027989      -23.8311865927  TIP3      11202           0.0000000000
     58522     11402  TIP3      H2             11.5804973241       21.5196301153      -25.0281779317  TIP3      11202           0.0000000000
     58523     11403  TIP3      OH2             5.0095913845       24.8150900618      -22.8520839611  TIP3      11203           0.0000000000
     58524     11403  TIP3      H1              5.7444579644       24.2878370664      -22.4745718107  TIP3      11203           0.0000000000
     58525     11403  TIP3      H2              4.5402950402       24.1435475743      -23.3724271577  TIP3      11203           0.0000000000
     58526     11404  TIP3      OH2             9.4906152942       29.2223140012      -25.2957054120  TIP3      11204           0.0000000000
     58527     11404  TIP3      H1              9.1838272519       28.9255817107      -26.1590800830  TIP3      11204           0.0000000000
     58528     11404  TIP3      H2              9.1562984814       30.1449599150      -25.2457872013  TIP3      11204           0.0000000000
     58529     11405  TIP3      OH2            12.8187186638       20.2679200283      -22.5034967734  TIP3      11205           0.0000000000
     58530     11405  TIP3      H1             12.5475936189       19.4901489733      -21.9958680665  TIP3      11205           0.0000000000
     58531     11405  TIP3      H2             13.4803869676       20.7064256179      -21.9760469630  TIP3      11205           0.0000000000
     58532     11406  TIP3      OH2            -0.7840890065       29.0036286538      -26.9697339011  TIP3      11206           0.0000000000
     58533     11406  TIP3      H1             -1.0420044824       29.3398048329      -27.8467866303  TIP3      11206           0.0000000000
     58534     11406  TIP3      H2             -0.6958528075       29.8290842886      -26.4563151985  TIP3      11206           0.0000000000
     58535     11407  TIP3      OH2            11.1185464037       32.4313146809      -23.6004138333  TIP3      11207           0.0000000000
     58536     11407  TIP3      H1             11.5121299685       31.7174709618      -24.1459661417  TIP3      11207           0.0000000000
     58537     11407  TIP3      H2             11.5017029958       33.2334585579      -24.0288558376  TIP3      11207           0.0000000000
     58538     11408  TIP3      OH2            12.2822216386       30.3887931833      -25.0936640275  TIP3      11208           0.0000000000
     58539     11408  TIP3      H1             11.9743915318       29.7015338908      -25.7037448131  TIP3      11208           0.0000000000
     58540     11408  TIP3      H2             12.3365142669       29.8736374434      -24.2612207207  TIP3      11208           0.0000000000
     58541     11409  TIP3      OH2             8.4065727630       25.8600903399      -26.8505317377  TIP3      11209           0.0000000000
     58542     11409  TIP3      H1              7.7149048134       26.4375308213      -27.2233760854  TIP3      11209           0.0000000000
     58543     11409  TIP3      H2              9.1130322197       25.9516288236      -27.5173843161  TIP3      11209           0.0000000000
     58544     11410  TIP3      OH2             8.4875013839       24.4303653398      -29.8513158427  TIP3      11210           0.0000000000
     58545     11410  TIP3      H1              9.1913321644       24.4107498175      -29.1850895172  TIP3      11210           0.0000000000
     58546     11410  TIP3      H2              8.7928723525       23.7097192868      -30.4173159452  TIP3      11210           0.0000000000
     58547     11411  TIP3      OH2            11.8506082383       26.0655188453      -25.9433188028  TIP3      11211           0.0000000000
     58548     11411  TIP3      H1             11.1174103155       26.3071595251      -25.3228876482  TIP3      11211           0.0000000000
     58549     11411  TIP3      H2             12.3229348964       25.4004801897      -25.4163955187  TIP3      11211           0.0000000000
     58550     11412  TIP3      OH2             3.4398223601       26.7519572015      -23.9943904733  TIP3      11212           0.0000000000
     58551     11412  TIP3      H1              3.1301134771       26.3530125872      -24.8343053243  TIP3      11212           0.0000000000
     58552     11412  TIP3      H2              4.0843455701       26.0706729340      -23.6921132317  TIP3      11212           0.0000000000
     58553     11413  TIP3      OH2            10.7295547002       25.2735122674      -28.2796688898  TIP3      11213           0.0000000000
     58554     11413  TIP3      H1             11.2852486867       25.4471669935      -27.4821512531  TIP3      11213           0.0000000000
     58555     11413  TIP3      H2             11.1835393763       25.7683281038      -28.9983224818  TIP3      11213           0.0000000000
     58556     11414  TIP3      OH2             8.4127977607       31.9640164646      -24.7762334076  TIP3      11214           0.0000000000
     58557     11414  TIP3      H1              8.8839510916       32.3054490955      -24.0102330631  TIP3      11214           0.0000000000
     58558     11414  TIP3      H2              7.8875694537       32.7286778318      -25.0473422190  TIP3      11214           0.0000000000
     58559     11415  TIP3      OH2            14.4563235874       17.0038126040      -28.3616540609  TIP3      11215           0.0000000000
     58560     11415  TIP3      H1             13.5064349834       17.1170036962      -28.1285981517  TIP3      11215           0.0000000000
     58561     11415  TIP3      H2             14.6612627005       17.8425733453      -28.8128373549  TIP3      11215           0.0000000000
     58562     11416  TIP3      OH2             2.4249574809       25.7438165716      -26.4040048020  TIP3      11216           0.0000000000
     58563     11416  TIP3      H1              2.1369431012       26.5316626381      -26.9078566571  TIP3      11216           0.0000000000
     58564     11416  TIP3      H2              1.7730132521       25.0807400337      -26.6328732415  TIP3      11216           0.0000000000
     58565     11417  TIP3      OH2            15.5664223223       31.3542547897      -30.0139369857  TIP3      11217           0.0000000000
     58566     11417  TIP3      H1             15.7342166654       32.2985434766      -29.8495063861  TIP3      11217           0.0000000000
     58567     11417  TIP3      H2             16.4916293231       31.0420383726      -30.0212821558  TIP3      11217           0.0000000000
     58568     11418  TIP3      OH2             7.9208284387       34.9038589718      -26.3770421662  TIP3      11218           0.0000000000
     58569     11418  TIP3      H1              7.8084376204       34.8276326567      -27.3392971346  TIP3      11218           0.0000000000
     58570     11418  TIP3      H2              7.9118663260       35.8651947801      -26.2304678197  TIP3      11218           0.0000000000
     58571     11419  TIP3      OH2             1.5636109838       33.7916739238      -24.5680623979  TIP3      11219           0.0000000000
     58572     11419  TIP3      H1              1.7258267494       33.3542904880      -23.6990481846  TIP3      11219           0.0000000000
     58573     11419  TIP3      H2              0.7380554973       33.3545664421      -24.8218762769  TIP3      11219           0.0000000000
     58574     11420  TIP3      OH2            10.9850387035       34.1249234820      -29.4112923031  TIP3      11220           0.0000000000
     58575     11420  TIP3      H1             11.4354575877       33.3638314471      -29.8440460608  TIP3      11220           0.0000000000
     58576     11420  TIP3      H2             11.0176791087       33.8596151577      -28.4666873239  TIP3      11220           0.0000000000
     58577     11421  TIP3      OH2            10.6809820100       34.0337245049      -26.6609605775  TIP3      11221           0.0000000000
     58578     11421  TIP3      H1              9.7323613419       34.1502126900      -26.4424339542  TIP3      11221           0.0000000000
     58579     11421  TIP3      H2             10.9108575900       33.3178386677      -26.0492691491  TIP3      11221           0.0000000000
     58580     11422  TIP3      OH2            12.1843554288       26.2966906130      -30.4499664100  TIP3      11222           0.0000000000
     58581     11422  TIP3      H1             12.1551178619       26.1046063245      -31.4152447037  TIP3      11222           0.0000000000
     58582     11422  TIP3      H2             13.0386677799       26.7490152549      -30.4067766100  TIP3      11222           0.0000000000
     58583     11423  TIP3      OH2             7.7749182079       20.2292668010      -29.9536514776  TIP3      11223           0.0000000000
     58584     11423  TIP3      H1              7.4683785694       20.1671053916      -29.0330400820  TIP3      11223           0.0000000000
     58585     11423  TIP3      H2              7.4669265269       19.3509304426      -30.2565509525  TIP3      11223           0.0000000000
     58586     11424  TIP3      OH2             3.5207394483       23.0750034396      -24.5209801838  TIP3      11224           0.0000000000
     58587     11424  TIP3      H1              2.5962468426       22.7978090200      -24.6528035591  TIP3      11224           0.0000000000
     58588     11424  TIP3      H2              3.9375350398       22.7694537004      -25.3573137577  TIP3      11224           0.0000000000
     58589     11425  TIP3      OH2             9.0640644653       23.5693020705      -25.7090542980  TIP3      11225           0.0000000000
     58590     11425  TIP3      H1              8.6683189884       24.3847494862      -26.0880136880  TIP3      11225           0.0000000000
     58591     11425  TIP3      H2              9.7552350355       23.3911610351      -26.3679046798  TIP3      11225           0.0000000000
     58592     11426  TIP3      OH2            10.0755340207       23.0453842574      -22.9027742767  TIP3      11226           0.0000000000
     58593     11426  TIP3      H1              9.8355361234       23.6323514150      -23.6262375571  TIP3      11226           0.0000000000
     58594     11426  TIP3      H2             10.2162905350       22.2007586749      -23.3548054552  TIP3      11226           0.0000000000
     58595     11427  TIP3      OH2             4.5852841016       20.5915406766      -30.8305903666  TIP3      11227           0.0000000000
     58596     11427  TIP3      H1              4.1318416253       20.1722966698      -30.0702546228  TIP3      11227           0.0000000000
     58597     11427  TIP3      H2              3.8752441574       21.0241885011      -31.3198840931  TIP3      11227           0.0000000000
     58598     11428  TIP3      OH2            -2.1567541528       20.3378461233      -23.7740262009  TIP3      11228           0.0000000000
     58599     11428  TIP3      H1             -1.4910423727       20.3141434515      -23.1122190788  TIP3      11228           0.0000000000
     58600     11428  TIP3      H2             -1.7192490264       19.9040460612      -24.5403209811  TIP3      11228           0.0000000000
     58601     11429  TIP3      OH2            -0.8720857221       21.0141390189      -28.3686804832  TIP3      11229           0.0000000000
     58602     11429  TIP3      H1             -0.3494434900       21.6332559195      -28.9097883304  TIP3      11229           0.0000000000
     58603     11429  TIP3      H2             -1.5430014595       21.6406384976      -28.0199231010  TIP3      11229           0.0000000000
     58604     11430  TIP3      OH2             6.1767239347       20.6939673855      -23.4813489846  TIP3      11230           0.0000000000
     58605     11430  TIP3      H1              5.2281587731       20.5653682779      -23.2484637109  TIP3      11230           0.0000000000
     58606     11430  TIP3      H2              6.6121815544       20.4618632363      -22.6519576546  TIP3      11230           0.0000000000
     58607     11431  TIP3      OH2             0.8671278967       22.1162483844      -24.5683447770  TIP3      11231           0.0000000000
     58608     11431  TIP3      H1              0.0330520917       22.3575185511      -25.0187944194  TIP3      11231           0.0000000000
     58609     11431  TIP3      H2              1.2203309480       21.3493972926      -25.0626023094  TIP3      11231           0.0000000000
     58610     11432  TIP3      OH2             4.5537404883       22.2106149618      -27.0086609124  TIP3      11232           0.0000000000
     58611     11432  TIP3      H1              5.5112390068       22.3187573386      -26.8334398010  TIP3      11232           0.0000000000
     58612     11432  TIP3      H2              4.3240631028       22.9027277519      -27.6554693710  TIP3      11232           0.0000000000
     58613     11433  TIP3      OH2             3.2658640390       23.3914189661      -29.4102844327  TIP3      11233           0.0000000000
     58614     11433  TIP3      H1              2.7341089342       23.0102136323      -30.1297647221  TIP3      11233           0.0000000000
     58615     11433  TIP3      H2              4.0869758521       23.5983041691      -29.8830110221  TIP3      11233           0.0000000000
     58616     11434  TIP3      OH2             7.2735474402       23.2913843183      -21.6400178368  TIP3      11234           0.0000000000
     58617     11434  TIP3      H1              8.0099443125       22.8585257051      -22.1104429509  TIP3      11234           0.0000000000
     58618     11434  TIP3      H2              7.3697066909       22.8269547944      -20.7971248856  TIP3      11234           0.0000000000
     58619     11435  TIP3      OH2             2.3299546996       19.5355242627      -25.1951609544  TIP3      11235           0.0000000000
     58620     11435  TIP3      H1              2.1205586533       18.5833269245      -25.1571216233  TIP3      11235           0.0000000000
     58621     11435  TIP3      H2              3.1733495199       19.4779263447      -25.6680151089  TIP3      11235           0.0000000000
     58622     11436  TIP3      OH2             6.6226799660       27.9105304843      -27.4922887199  TIP3      11236           0.0000000000
     58623     11436  TIP3      H1              5.8186958015       27.4518865686      -27.8257751375  TIP3      11236           0.0000000000
     58624     11436  TIP3      H2              6.3913628186       28.0421161676      -26.5462249959  TIP3      11236           0.0000000000
     58625     11437  TIP3      OH2            10.4559887524       20.7586069946      -29.3362261743  TIP3      11237           0.0000000000
     58626     11437  TIP3      H1              9.4973279530       20.8895207629      -29.4464798040  TIP3      11237           0.0000000000
     58627     11437  TIP3      H2             10.7877122433       21.6004647420      -28.9611448663  TIP3      11237           0.0000000000
     58628     11438  TIP3      OH2            11.1829745968       22.6536680323      -27.7097780721  TIP3      11238           0.0000000000
     58629     11438  TIP3      H1             12.0570396187       22.5256638650      -27.2852248647  TIP3      11238           0.0000000000
     58630     11438  TIP3      H2             11.2856327349       23.4877497647      -28.1952026538  TIP3      11238           0.0000000000
     58631     11439  TIP3      OH2             1.6815916289       27.2496303302      -21.7179652856  TIP3      11239           0.0000000000
     58632     11439  TIP3      H1              2.4263178549       27.2739937104      -22.3514006429  TIP3      11239           0.0000000000
     58633     11439  TIP3      H2              1.8322093016       26.4552650169      -21.2230912999  TIP3      11239           0.0000000000
     58634     11440  TIP3      OH2             8.7113354754       29.3878859179      -28.4609766357  TIP3      11240           0.0000000000
     58635     11440  TIP3      H1              8.3719660860       30.2343876376      -28.1040709147  TIP3      11240           0.0000000000
     58636     11440  TIP3      H2              7.9790772269       28.7735376385      -28.2360174190  TIP3      11240           0.0000000000
     58637     11441  TIP3      OH2            16.0882165117       22.7884814458      -27.9128368003  TIP3      11241           0.0000000000
     58638     11441  TIP3      H1             15.5156575104       22.5096761734      -28.6513391678  TIP3      11241           0.0000000000
     58639     11441  TIP3      H2             16.1647955670       23.7409188158      -28.1595256260  TIP3      11241           0.0000000000
     58640     11442  TIP3      OH2            14.3427148447       31.6281628042      -27.5237362277  TIP3      11242           0.0000000000
     58641     11442  TIP3      H1             14.0079819397       30.7948333886      -27.1686763594  TIP3      11242           0.0000000000
     58642     11442  TIP3      H2             14.6951917605       31.4036005837      -28.4005535225  TIP3      11242           0.0000000000
     58643     11443  TIP3      OH2             4.1075521404       30.7582472447      -24.3135262096  TIP3      11243           0.0000000000
     58644     11443  TIP3      H1              4.5894360690       31.5798166956      -24.4923865501  TIP3      11243           0.0000000000
     58645     11443  TIP3      H2              3.2215062869       30.9819611419      -24.6171660202  TIP3      11243           0.0000000000
     58646     11444  TIP3      OH2            -0.1328455270       25.6097926617      -29.7311170885  TIP3      11244           0.0000000000
     58647     11444  TIP3      H1              0.4460664289       26.2768988442      -29.3237308209  TIP3      11244           0.0000000000
     58648     11444  TIP3      H2             -1.0234461319       25.9249997780      -29.4860823146  TIP3      11244           0.0000000000
     58649     11445  TIP3      OH2             5.4853663196       28.4324538508      -24.8931088984  TIP3      11245           0.0000000000
     58650     11445  TIP3      H1              5.2089490958       29.3456026276      -24.6706983534  TIP3      11245           0.0000000000
     58651     11445  TIP3      H2              4.8255788265       27.9476269087      -24.3569607230  TIP3      11245           0.0000000000
     58652     11446  TIP3      OH2             4.1985585839       33.4491540793      -25.2472663423  TIP3      11246           0.0000000000
     58653     11446  TIP3      H1              3.2264473907       33.5718622829      -25.1491436639  TIP3      11246           0.0000000000
     58654     11446  TIP3      H2              4.5441470567       34.2876468074      -24.8910043065  TIP3      11246           0.0000000000
     58655     11447  TIP3      OH2            11.8308041593       29.6975272253      -29.6708267086  TIP3      11247           0.0000000000
     58656     11447  TIP3      H1             12.1241764246       29.2236480700      -28.8663160506  TIP3      11247           0.0000000000
     58657     11447  TIP3      H2             10.8771427308       29.5132613214      -29.5893792843  TIP3      11247           0.0000000000
     58658     11448  TIP3      OH2            16.2777502048       34.0457568064      -29.4125218373  TIP3      11248           0.0000000000
     58659     11448  TIP3      H1             16.9746648302       34.6938309580      -29.6288159832  TIP3      11248           0.0000000000
     58660     11448  TIP3      H2             15.5568802482       34.6600844950      -29.1361987354  TIP3      11248           0.0000000000
     58661     11449  TIP3      OH2            12.6056226140       28.3366113392      -27.4322310802  TIP3      11249           0.0000000000
     58662     11449  TIP3      H1             12.3619749474       27.5487549015      -26.9033737081  TIP3      11249           0.0000000000
     58663     11449  TIP3      H2             13.5569856096       28.3728476163      -27.2485694369  TIP3      11249           0.0000000000
     58664     11450  TIP3      OH2             5.9563159761       30.7696147040      -31.1715432776  TIP3      11250           0.0000000000
     58665     11450  TIP3      H1              6.0538444961       30.0042809177      -31.7634219444  TIP3      11250           0.0000000000
     58666     11450  TIP3      H2              5.5125829243       30.3363026124      -30.4087614086  TIP3      11250           0.0000000000
     58667     11451  TIP3      OH2             4.7253985852       30.2919138684      -28.7151767646  TIP3      11251           0.0000000000
     58668     11451  TIP3      H1              4.9964869318       29.7818998197      -27.9407338381  TIP3      11251           0.0000000000
     58669     11451  TIP3      H2              4.8168380350       31.2194206759      -28.3973089097  TIP3      11251           0.0000000000
     58670     11452  TIP3      OH2             1.2666198974       27.5404101847      -28.2422138439  TIP3      11252           0.0000000000
     58671     11452  TIP3      H1              0.5564068012       27.9365650712      -27.6984378385  TIP3      11252           0.0000000000
     58672     11452  TIP3      H2              1.7761517957       28.3197355793      -28.5294351703  TIP3      11252           0.0000000000
     58673     11453  TIP3      OH2             9.8337496077       19.8149949898      -26.8415930732  TIP3      11253           0.0000000000
     58674     11453  TIP3      H1             10.0861208684       20.2712381872      -27.6621223032  TIP3      11253           0.0000000000
     58675     11453  TIP3      H2             10.4002151276       20.2387550572      -26.1767006528  TIP3      11253           0.0000000000
     58676     11454  TIP3      OH2             7.5333904684       31.9571600745      -28.0242654721  TIP3      11254           0.0000000000
     58677     11454  TIP3      H1              6.7149213984       32.4884159799      -27.9532200685  TIP3      11254           0.0000000000
     58678     11454  TIP3      H2              8.0715882430       32.5076277424      -28.6115104572  TIP3      11254           0.0000000000
     58679     11455  TIP3      OH2             7.0568680633       21.6036755927      -26.0266327962  TIP3      11255           0.0000000000
     58680     11455  TIP3      H1              7.8701272334       22.1352579952      -25.9241277133  TIP3      11255           0.0000000000
     58681     11455  TIP3      H2              6.8215097524       21.3843714414      -25.0976680982  TIP3      11255           0.0000000000
     58682     11456  TIP3      OH2             7.9601150373       18.6773294899      -25.1633958327  TIP3      11256           0.0000000000
     58683     11456  TIP3      H1              7.6440308210       19.2772675819      -24.4698928666  TIP3      11256           0.0000000000
     58684     11456  TIP3      H2              8.6673647736       19.1983988835      -25.5860374262  TIP3      11256           0.0000000000
     58685     11457  TIP3      OH2             4.9329461848       32.9943171531      -27.9954596549  TIP3      11257           0.0000000000
     58686     11457  TIP3      H1              5.0236087652       33.8113691394      -28.5475533982  TIP3      11257           0.0000000000
     58687     11457  TIP3      H2              4.6613828317       33.3570760216      -27.1242214566  TIP3      11257           0.0000000000
     58688     11458  TIP3      OH2             3.5848755537       19.7125546319      -28.4235459476  TIP3      11258           0.0000000000
     58689     11458  TIP3      H1              3.5344786274       20.6072141317      -28.0282939409  TIP3      11258           0.0000000000
     58690     11458  TIP3      H2              4.4869836241       19.4603122362      -28.1413806340  TIP3      11258           0.0000000000
     58691     11459  TIP3      OH2             1.8138963802       30.1508260592      -29.3746764382  TIP3      11259           0.0000000000
     58692     11459  TIP3      H1              2.4838215804       30.7754565303      -29.0630827428  TIP3      11259           0.0000000000
     58693     11459  TIP3      H2              2.3359520459       29.6860412035      -30.0590362845  TIP3      11259           0.0000000000
     58694     11460  TIP3      OH2             0.1565249161       22.8285844800      -30.2279552635  TIP3      11260           0.0000000000
     58695     11460  TIP3      H1              0.1743838298       23.7870946588      -30.0282021980  TIP3      11260           0.0000000000
     58696     11460  TIP3      H2             -0.7349769475       22.6530513192      -30.5395170512  TIP3      11260           0.0000000000
     58697     11461  TIP3      OH2            -0.0749262404       31.5439000169      -25.3449707430  TIP3      11261           0.0000000000
     58698     11461  TIP3      H1             -0.9298725538       31.9835876208      -25.4206588155  TIP3      11261           0.0000000000
     58699     11461  TIP3      H2              0.4112724435       31.9894117458      -26.0551351937  TIP3      11261           0.0000000000
     58700     11462  TIP3      OH2             7.9506535659       32.6181089129      -31.0494019223  TIP3      11262           0.0000000000
     58701     11462  TIP3      H1              7.2579712557       31.9587100354      -30.8224481440  TIP3      11262           0.0000000000
     58702     11462  TIP3      H2              8.6685380325       32.0183354842      -31.2962192017  TIP3      11262           0.0000000000
     58703     11463  TIP3      OH2            12.5030964553       32.3369770614      -30.8585943508  TIP3      11263           0.0000000000
     58704     11463  TIP3      H1             12.8171019036       31.5682346625      -30.3572213360  TIP3      11263           0.0000000000
     58705     11463  TIP3      H2             13.2577961789       32.6018019520      -31.4058840771  TIP3      11263           0.0000000000
     58706     11464  TIP3      OH2             3.3961632128       28.3031687264      -31.0444112342  TIP3      11264           0.0000000000
     58707     11464  TIP3      H1              3.5353419981       27.5431417322      -30.4573143821  TIP3      11264           0.0000000000
     58708     11464  TIP3      H2              4.1442725663       28.1833306041      -31.6618846095  TIP3      11264           0.0000000000
     58709     11465  TIP3      OH2             8.8255223945       29.4118509810      -31.2666683569  TIP3      11265           0.0000000000
     58710     11465  TIP3      H1              8.5547596036       29.4916887591      -30.3383834004  TIP3      11265           0.0000000000
     58711     11465  TIP3      H2              8.6366169392       28.4542579458      -31.4118149070  TIP3      11265           0.0000000000
     58712     11466  TIP3      OH2             4.6030621078       26.3208976837      -28.6284933877  TIP3      11266           0.0000000000
     58713     11466  TIP3      H1              4.0938537005       25.7855056148      -27.9998311569  TIP3      11266           0.0000000000
     58714     11466  TIP3      H2              4.9004459547       25.6429943218      -29.2756060373  TIP3      11266           0.0000000000
     58715     11467  TIP3      OH2             5.6742733906       24.5423137733      -30.4152089891  TIP3      11267           0.0000000000
     58716     11467  TIP3      H1              5.5202538381       24.4520254077      -31.3762241302  TIP3      11267           0.0000000000
     58717     11467  TIP3      H2              6.6504301171       24.5935319436      -30.3500447446  TIP3      11267           0.0000000000
     58718     11468  TIP3      OH2            15.0030054759       26.8595746057      -30.9991464765  TIP3      11268           0.0000000000
     58719     11468  TIP3      H1             14.8130278734       26.4823458188      -31.8737943075  TIP3      11268           0.0000000000
     58720     11468  TIP3      H2             15.0911440646       27.8232258006      -31.1904775143  TIP3      11268           0.0000000000
     58721     11469  TIP3      OH2             5.5004579931       35.2459391133      -29.3429061019  TIP3      11269           0.0000000000
     58722     11469  TIP3      H1              6.4676657461       35.3315605665      -29.2702500509  TIP3      11269           0.0000000000
     58723     11469  TIP3      H2              5.3553231681       35.8571937800      -30.0774498981  TIP3      11269           0.0000000000
     58724     11470  TIP3      OH2            -0.9439081479       29.8159537802      -29.8694453488  TIP3      11270           0.0000000000
     58725     11470  TIP3      H1              0.0234078734       29.9090447374      -29.6900741470  TIP3      11270           0.0000000000
     58726     11470  TIP3      H2             -0.8944980143       29.1729261037      -30.6163223667  TIP3      11270           0.0000000000
     58727     11471  TIP3      OH2            -2.1158285408       35.2041366064      -24.8970163015  TIP3      11271           0.0000000000
     58728     11471  TIP3      H1             -2.8536393914       34.7592849084      -25.3881704316  TIP3      11271           0.0000000000
     58729     11471  TIP3      H2             -1.8786234422       34.5480286173      -24.2448757628  TIP3      11271           0.0000000000
     58730     11472  TIP3      OH2            15.5341060631       27.7756598100      -27.0461943078  TIP3      11272           0.0000000000
     58731     11472  TIP3      H1             16.4013070613       28.1675159665      -26.8619266530  TIP3      11272           0.0000000000
     58732     11472  TIP3      H2             15.5239907421       27.0619474853      -26.3711410703  TIP3      11272           0.0000000000
     58733     11473  TIP3      OH2            15.9239737487       25.8602734556      -25.1441076730  TIP3      11273           0.0000000000
     58734     11473  TIP3      H1             15.1628747887       25.3675633326      -24.7613343667  TIP3      11273           0.0000000000
     58735     11473  TIP3      H2             16.4949250717       25.9937119760      -24.3565486748  TIP3      11273           0.0000000000
     58736     11474  TIP3      OH2            16.1957858351       25.6803168680      -28.7706145401  TIP3      11274           0.0000000000
     58737     11474  TIP3      H1             15.6281907541       26.0211504883      -29.4943945077  TIP3      11274           0.0000000000
     58738     11474  TIP3      H2             16.0957331426       26.3929318769      -28.1116306942  TIP3      11274           0.0000000000
     58739     11475  TIP3      OH2            14.5733804354       22.9056450428      -30.2603454246  TIP3      11275           0.0000000000
     58740     11475  TIP3      H1             14.6464436126       23.5728170152      -30.9528855008  TIP3      11275           0.0000000000
     58741     11475  TIP3      H2             14.3837712226       22.0849401065      -30.7535880444  TIP3      11275           0.0000000000
     58742     11476  TIP3      OH2            13.7470892617       24.3041767862      -24.5918960325  TIP3      11276           0.0000000000
     58743     11476  TIP3      H1             13.5520416114       23.3610716473      -24.6377737964  TIP3      11276           0.0000000000
     58744     11476  TIP3      H2             13.3635332265       24.5568449848      -23.7462486618  TIP3      11276           0.0000000000
     58745     11477  TIP3      OH2            13.8236545906       20.3836605307      -31.1289712922  TIP3      11277           0.0000000000
     58746     11477  TIP3      H1             14.4060336268       19.9438594425      -30.4808041036  TIP3      11277           0.0000000000
     58747     11477  TIP3      H2             12.9546458539       19.9707963434      -30.9740913171  TIP3      11277           0.0000000000
     58748     11478  TIP3      OH2            13.3601847361       21.9190221621      -26.1712243438  TIP3      11278           0.0000000000
     58749     11478  TIP3      H1             13.6730577899       20.9934468217      -26.0396299559  TIP3      11278           0.0000000000
     58750     11478  TIP3      H2             14.1776185004       22.3220670995      -26.4978517217  TIP3      11278           0.0000000000
     58751     11479  TIP3      OH2            14.0434667836       19.1961111989      -26.1022976284  TIP3      11279           0.0000000000
     58752     11479  TIP3      H1             14.2523531293       18.7594715796      -25.2537525712  TIP3      11279           0.0000000000
     58753     11479  TIP3      H2             13.4345959190       18.5570708339      -26.5307055573  TIP3      11279           0.0000000000
     58754     11480  TIP3      OH2            15.8736230584       19.2328846242      -29.5325388507  TIP3      11280           0.0000000000
     58755     11480  TIP3      H1             16.2816318894       18.5247544492      -30.0781058097  TIP3      11280           0.0000000000
     58756     11480  TIP3      H2             16.5779331085       19.8974513899      -29.4894845250  TIP3      11280           0.0000000000
     58757     11481  TIP3      OH2            -1.8066304660       19.2975870576      -26.3826990670  TIP3      11281           0.0000000000
     58758     11481  TIP3      H1             -2.7515421245       19.4344246111      -26.5723694132  TIP3      11281           0.0000000000
     58759     11481  TIP3      H2             -1.3932138881       19.7459033135      -27.1420520733  TIP3      11281           0.0000000000
     58760     11482  TIP3      OH2            12.9558019460       34.1818264403      -24.4245641567  TIP3      11282           0.0000000000
     58761     11482  TIP3      H1             13.5966574504       33.9226154519      -25.1175218217  TIP3      11282           0.0000000000
     58762     11482  TIP3      H2             13.4706786123       34.7816664536      -23.8775551453  TIP3      11282           0.0000000000
     58763     11483  TIP3      OH2             2.1547231559       32.6756683952      -22.1094975428  TIP3      11283           0.0000000000
     58764     11483  TIP3      H1              2.0550124346       31.7310520818      -21.8788159908  TIP3      11283           0.0000000000
     58765     11483  TIP3      H2              3.0011156751       32.8619486679      -21.6421658536  TIP3      11283           0.0000000000
     58766     11484  TIP3      OH2             4.7623628406       33.1545142420      -21.2554785202  TIP3      11284           0.0000000000
     58767     11484  TIP3      H1              5.0118442970       32.2564620735      -21.4866705465  TIP3      11284           0.0000000000
     58768     11484  TIP3      H2              4.8177783270       33.2175045769      -20.2889718094  TIP3      11284           0.0000000000
     58769     11485  TIP3      OH2            13.4965360109       16.8879599154      -21.9948054430  TIP3      11285           0.0000000000
     58770     11485  TIP3      H1             14.0488188694       17.5116901564      -22.5207412891  TIP3      11285           0.0000000000
     58771     11485  TIP3      H2             12.5866571928       17.2259822237      -22.1999415526  TIP3      11285           0.0000000000
     58772     11486  TIP3      OH2            15.1048869469       18.1518040464      -23.7127120568  TIP3      11286           0.0000000000
     58773     11486  TIP3      H1             15.7727852462       17.5995129508      -24.1782965843  TIP3      11286           0.0000000000
     58774     11486  TIP3      H2             15.6013253165       18.9969186912      -23.6645187527  TIP3      11286           0.0000000000
     58775     11487  TIP3      OH2             0.6465709100       17.4932537684      -24.2544064360  TIP3      11287           0.0000000000
     58776     11487  TIP3      H1             -0.1445614294       17.2782131652      -24.7764923194  TIP3      11287           0.0000000000
     58777     11487  TIP3      H2              1.1333929053       16.6469735702      -24.2687091489  TIP3      11287           0.0000000000
     58778     11488  TIP3      OH2            -0.5686835570       17.2341344468      -28.5122598162  TIP3      11288           0.0000000000
     58779     11488  TIP3      H1             -0.0815662152       17.8921308870      -29.0441483562  TIP3      11288           0.0000000000
     58780     11488  TIP3      H2             -1.1367187530       17.8090093546      -27.9701946279  TIP3      11288           0.0000000000
     58781     11489  TIP3      OH2             4.7264930653       18.0721533543      -23.9809194692  TIP3      11289           0.0000000000
     58782     11489  TIP3      H1              5.5804839240       18.0228187173      -24.4538593472  TIP3      11289           0.0000000000
     58783     11489  TIP3      H2              4.9132630257       17.2322971568      -23.5528571282  TIP3      11289           0.0000000000
     58784     11490  TIP3      OH2            10.9769508477       17.3722095333      -22.8189906802  TIP3      11290           0.0000000000
     58785     11490  TIP3      H1             10.7910139036       17.5609010261      -23.7461617766  TIP3      11290           0.0000000000
     58786     11490  TIP3      H2             10.4073888216       16.5854596690      -22.6873671863  TIP3      11290           0.0000000000
     58787     11491  TIP3      OH2            12.0948211659       17.4457184271      -27.1272159382  TIP3      11291           0.0000000000
     58788     11491  TIP3      H1             11.3395664698       18.0377307368      -27.2720944627  TIP3      11291           0.0000000000
     58789     11491  TIP3      H2             11.6508318328       16.5988243126      -26.8873004012  TIP3      11291           0.0000000000
     58790     11492  TIP3      OH2            -0.6625577977       33.1777894439      -27.4720181998  TIP3      11292           0.0000000000
     58791     11492  TIP3      H1             -1.3076843500       33.1685273723      -28.2047527984  TIP3      11292           0.0000000000
     58792     11492  TIP3      H2             -0.6538345433       34.1316158914      -27.3014331564  TIP3      11292           0.0000000000
     58793     11493  TIP3      OH2             1.2569082774       19.1790723043      -29.9972195642  TIP3      11293           0.0000000000
     58794     11493  TIP3      H1              1.7890885886       18.5624815413      -30.5264326387  TIP3      11293           0.0000000000
     58795     11493  TIP3      H2              1.9235817137       19.5025257220      -29.3636260364  TIP3      11293           0.0000000000
     58796     11494  TIP3      OH2             6.2689071236       19.4333085159      -27.5907703510  TIP3      11294           0.0000000000
     58797     11494  TIP3      H1              6.5475193563       18.8364109829      -26.8701757190  TIP3      11294           0.0000000000
     58798     11494  TIP3      H2              6.3573394288       20.2875112765      -27.1189727922  TIP3      11294           0.0000000000
     58799     11495  TIP3      OH2             8.2172305913       34.4954987961      -29.1436489663  TIP3      11295           0.0000000000
     58800     11495  TIP3      H1              9.1378792842       34.7156264873      -29.3630278274  TIP3      11295           0.0000000000
     58801     11495  TIP3      H2              7.9972706430       33.9773814739      -29.9461813262  TIP3      11295           0.0000000000
     58802     11496  TIP3      OH2            14.9281496267       33.9934338414      -26.4366757987  TIP3      11296           0.0000000000
     58803     11496  TIP3      H1             14.7195504203       33.2153067165      -27.0063213928  TIP3      11296           0.0000000000
     58804     11496  TIP3      H2             14.8515814001       34.7369384112      -27.0715417367  TIP3      11296           0.0000000000
     58805     11497  TIP3      OH2             1.1487271313       34.1899028625      -30.5390142127  TIP3      11297           0.0000000000
     58806     11497  TIP3      H1              0.8843192190       34.4129390516      -29.6376406525  TIP3      11297           0.0000000000
     58807     11497  TIP3      H2              1.9213277269       33.6098753866      -30.3916572674  TIP3      11297           0.0000000000
     58808     11498  TIP3      OH2            28.5774863188       26.6910305972      -24.3416664572  TIP3      11298           0.0000000000
     58809     11498  TIP3      H1             28.5097758963       27.6140246182      -24.6097946812  TIP3      11298           0.0000000000
     58810     11498  TIP3      H2             27.9182268494       26.3149673651      -24.9648475115  TIP3      11298           0.0000000000
     58811     11499  TIP3      OH2            31.4400475332       28.8360604652      -22.4572362995  TIP3      11299           0.0000000000
     58812     11499  TIP3      H1             31.1070002686       28.0500824341      -21.9969018272  TIP3      11299           0.0000000000
     58813     11499  TIP3      H2             31.3851480456       29.5347815321      -21.8017167454  TIP3      11299           0.0000000000
     58814     11500  TIP3      OH2            17.3674591387       23.5288946274      -25.3153640066  TIP3      11300           0.0000000000
     58815     11500  TIP3      H1             16.9782154978       24.4225317681      -25.4155321213  TIP3      11300           0.0000000000
     58816     11500  TIP3      H2             16.8134201023       23.0188508692      -25.9173061736  TIP3      11300           0.0000000000
     58817     11501  TIP3      OH2            18.1293121324       25.8237279697      -23.1971311796  TIP3      11301           0.0000000000
     58818     11501  TIP3      H1             18.3059277801       25.0065909382      -22.6895257275  TIP3      11301           0.0000000000
     58819     11501  TIP3      H2             18.8204269275       25.8308532808      -23.8660222086  TIP3      11301           0.0000000000
     58820     11502  TIP3      OH2            28.2532651646       33.8870419218      -22.3910328940  TIP3      11302           0.0000000000
     58821     11502  TIP3      H1             29.0045522406       33.3375940950      -22.5961885841  TIP3      11302           0.0000000000
     58822     11502  TIP3      H2             28.0779626503       33.8027360075      -21.4280389664  TIP3      11302           0.0000000000
     58823     11503  TIP3      OH2            25.9024226787       28.3857034647      -20.4909820293  TIP3      11303           0.0000000000
     58824     11503  TIP3      H1             26.1759797409       27.6421642513      -21.0177635528  TIP3      11303           0.0000000000
     58825     11503  TIP3      H2             26.5578368925       28.3855800438      -19.7717115291  TIP3      11303           0.0000000000
     58826     11504  TIP3      OH2            22.1880160420       20.8504670475      -22.8758523425  TIP3      11304           0.0000000000
     58827     11504  TIP3      H1             22.1733400295       21.7123495316      -23.3153877480  TIP3      11304           0.0000000000
     58828     11504  TIP3      H2             21.6982942717       20.2757994413      -23.4940007486  TIP3      11304           0.0000000000
     58829     11505  TIP3      OH2            29.8747944425       20.9151696084      -24.4996946126  TIP3      11305           0.0000000000
     58830     11505  TIP3      H1             30.5234961364       20.5807533320      -23.8778303516  TIP3      11305           0.0000000000
     58831     11505  TIP3      H2             30.4089629503       21.4957032966      -25.0666116690  TIP3      11305           0.0000000000
     58832     11506  TIP3      OH2            18.6859232771       23.1427834912      -22.1684627936  TIP3      11306           0.0000000000
     58833     11506  TIP3      H1             19.4374729251       22.7350470517      -21.7108291735  TIP3      11306           0.0000000000
     58834     11506  TIP3      H2             18.8818857773       22.9191262988      -23.0882953462  TIP3      11306           0.0000000000
     58835     11507  TIP3      OH2            28.3080500425       29.2331633989      -25.1884731565  TIP3      11307           0.0000000000
     58836     11507  TIP3      H1             28.0910787425       28.9226991043      -26.0985164156  TIP3      11307           0.0000000000
     58837     11507  TIP3      H2             27.9823356156       30.1663313312      -25.2832487750  TIP3      11307           0.0000000000
     58838     11508  TIP3      OH2            18.0603017096       28.9940443554      -26.9844520494  TIP3      11308           0.0000000000
     58839     11508  TIP3      H1             17.8151328086       29.3257962158      -27.8660892203  TIP3      11308           0.0000000000
     58840     11508  TIP3      H2             18.1451302991       29.8287604259      -26.4891950374  TIP3      11308           0.0000000000
     58841     11509  TIP3      OH2            30.9594602772       30.3547787309      -25.0374791110  TIP3      11309           0.0000000000
     58842     11509  TIP3      H1             30.9049763815       29.7157845095      -25.7753153185  TIP3      11309           0.0000000000
     58843     11509  TIP3      H2             31.3829971668       29.8723717583      -24.3276520471  TIP3      11309           0.0000000000
     58844     11510  TIP3      OH2            27.2817020537       25.9038846086      -26.7949972973  TIP3      11310           0.0000000000
     58845     11510  TIP3      H1             26.5568718288       26.4119319893      -27.2092935799  TIP3      11310           0.0000000000
     58846     11510  TIP3      H2             27.9510925267       25.9364158697      -27.5077160393  TIP3      11310           0.0000000000
     58847     11511  TIP3      OH2            27.3424590744       24.4286840478      -29.8483431784  TIP3      11311           0.0000000000
     58848     11511  TIP3      H1             28.0503259251       24.4110638522      -29.1872768778  TIP3      11311           0.0000000000
     58849     11511  TIP3      H2             27.6483820929       23.7107068570      -30.4177128419  TIP3      11311           0.0000000000
     58850     11512  TIP3      OH2            30.7288834162       26.1068411557      -25.9125419012  TIP3      11312           0.0000000000
     58851     11512  TIP3      H1             29.9416366346       26.2403712549      -25.3451795166  TIP3      11312           0.0000000000
     58852     11512  TIP3      H2             31.1926711961       25.3765737150      -25.4626033828  TIP3      11312           0.0000000000
     58853     11513  TIP3      OH2            22.3342191918       26.7390499800      -24.0131808167  TIP3      11313           0.0000000000
     58854     11513  TIP3      H1             21.9764569698       26.3438587946      -24.8461008484  TIP3      11313           0.0000000000
     58855     11513  TIP3      H2             22.8866989052       26.0065279723      -23.7120186759  TIP3      11313           0.0000000000
     58856     11514  TIP3      OH2            23.6729246417       30.1523334824      -21.3681935981  TIP3      11314           0.0000000000
     58857     11514  TIP3      H1             23.6554812004       29.5811434697      -22.1406965064  TIP3      11314           0.0000000000
     58858     11514  TIP3      H2             24.4041805523       29.8144628647      -20.8101154420  TIP3      11314           0.0000000000
     58859     11515  TIP3      OH2            29.5834350387       25.2734811571      -28.2751904573  TIP3      11315           0.0000000000
     58860     11515  TIP3      H1             30.1547107008       25.4293893610      -27.4884412195  TIP3      11315           0.0000000000
     58861     11515  TIP3      H2             30.0363722509       25.7662101121      -28.9973907794  TIP3      11315           0.0000000000
     58862     11516  TIP3      OH2            27.3230488493       31.9749907434      -24.7599422694  TIP3      11316           0.0000000000
     58863     11516  TIP3      H1             27.6660193410       32.4017785816      -23.9909736926  TIP3      11316           0.0000000000
     58864     11516  TIP3      H2             26.7358682425       32.6797294243      -25.1001117782  TIP3      11316           0.0000000000
     58865     11517  TIP3      OH2            33.3093739368       16.9965592065      -28.3736098892  TIP3      11317           0.0000000000
     58866     11517  TIP3      H1             32.3698556978       17.1195192089      -28.1079642484  TIP3      11317           0.0000000000
     58867     11517  TIP3      H2             33.5124532587       17.8412677667      -28.8117713927  TIP3      11317           0.0000000000
     58868     11518  TIP3      OH2            21.2814316624       25.7627297854      -26.3961793855  TIP3      11318           0.0000000000
     58869     11518  TIP3      H1             20.9944452482       26.5311011485      -26.9328454611  TIP3      11318           0.0000000000
     58870     11518  TIP3      H2             20.6455408812       25.0810304771      -26.6329067859  TIP3      11318           0.0000000000
     58871     11519  TIP3      OH2            34.4195195036       31.3429100161      -29.9841372844  TIP3      11319           0.0000000000
     58872     11519  TIP3      H1             34.5812303507       32.2928711488      -29.8438739911  TIP3      11319           0.0000000000
     58873     11519  TIP3      H2             35.3506794242       31.0447896388      -30.0256025964  TIP3      11319           0.0000000000
     58874     11520  TIP3      OH2            26.7741893029       34.9062393242      -26.3572978355  TIP3      11320           0.0000000000
     58875     11520  TIP3      H1             26.6679626544       34.8290935115      -27.3220598709  TIP3      11320           0.0000000000
     58876     11520  TIP3      H2             26.7740050642       35.8683920121      -26.2209844127  TIP3      11320           0.0000000000
     58877     11521  TIP3      OH2            20.4284005247       33.7884026900      -24.5862597876  TIP3      11321           0.0000000000
     58878     11521  TIP3      H1             20.5892703245       33.3962657031      -23.7009552578  TIP3      11321           0.0000000000
     58879     11521  TIP3      H2             19.5732729875       33.3887554487      -24.8200080883  TIP3      11321           0.0000000000
     58880     11522  TIP3      OH2            29.8384993590       34.1265069027      -29.4250551355  TIP3      11322           0.0000000000
     58881     11522  TIP3      H1             30.2952164042       33.3608469360      -29.8352431307  TIP3      11322           0.0000000000
     58882     11522  TIP3      H2             29.8718207636       33.8765763816      -28.4731588566  TIP3      11322           0.0000000000
     58883     11523  TIP3      OH2            29.5271153646       34.0987338425      -26.6494619714  TIP3      11323           0.0000000000
     58884     11523  TIP3      H1             28.5679906559       34.1295538991      -26.4603865716  TIP3      11323           0.0000000000
     58885     11523  TIP3      H2             29.7946904890       33.3618006145      -26.0824005606  TIP3      11323           0.0000000000
     58886     11524  TIP3      OH2            31.0420565258       26.2950871933      -30.4513522165  TIP3      11324           0.0000000000
     58887     11524  TIP3      H1             31.0143290369       26.1111727693      -31.4186831695  TIP3      11324           0.0000000000
     58888     11524  TIP3      H2             31.8945489844       26.7500613815      -30.4082155883  TIP3      11324           0.0000000000
     58889     11525  TIP3      OH2            26.6318362992       20.2268664322      -29.9467163403  TIP3      11325           0.0000000000
     58890     11525  TIP3      H1             26.3158494777       20.1630980380      -29.0265554522  TIP3      11325           0.0000000000
     58891     11525  TIP3      H2             26.3221088524       19.3507088824      -30.2542883676  TIP3      11325           0.0000000000
     58892     11526  TIP3      OH2            22.3998870660       23.0887462061      -24.5594306786  TIP3      11326           0.0000000000
     58893     11526  TIP3      H1             21.4634187064       22.8124902996      -24.6504320875  TIP3      11326           0.0000000000
     58894     11526  TIP3      H2             22.7816813432       22.7613805411      -25.3892656654  TIP3      11326           0.0000000000
     58895     11527  TIP3      OH2            27.9545562312       23.6042537608      -25.6867170983  TIP3      11327           0.0000000000
     58896     11527  TIP3      H1             27.5224406887       24.3781435838      -26.0983729164  TIP3      11327           0.0000000000
     58897     11527  TIP3      H2             28.6135888840       23.3975461969      -26.3724499045  TIP3      11327           0.0000000000
     58898     11528  TIP3      OH2            29.0373927184       23.0701949937      -22.9027867036  TIP3      11328           0.0000000000
     58899     11528  TIP3      H1             28.6447364023       23.5754142644      -23.6283255516  TIP3      11328           0.0000000000
     58900     11528  TIP3      H2             29.0466737691       22.2102317341      -23.3569696917  TIP3      11328           0.0000000000
     58901     11529  TIP3      OH2            23.4409899766       20.5913729293      -30.8288163906  TIP3      11329           0.0000000000
     58902     11529  TIP3      H1             22.9867338774       20.1714816980      -30.0702616553  TIP3      11329           0.0000000000
     58903     11529  TIP3      H2             22.7317097468       21.0241475814      -31.3195857987  TIP3      11329           0.0000000000
     58904     11530  TIP3      OH2            16.7098170276       20.3120719520      -23.7374696455  TIP3      11330           0.0000000000
     58905     11530  TIP3      H1             17.4099171594       20.3225975164      -23.0540864063  TIP3      11330           0.0000000000
     58906     11530  TIP3      H2             17.1819923326       19.9194043664      -24.4950257873  TIP3      11330           0.0000000000
     58907     11531  TIP3      OH2            17.9920581336       21.0229510918      -28.3499714318  TIP3      11331           0.0000000000
     58908     11531  TIP3      H1             18.5090993187       21.6277205686      -28.9137848859  TIP3      11331           0.0000000000
     58909     11531  TIP3      H2             17.3090017429       21.6519308652      -28.0331846960  TIP3      11331           0.0000000000
     58910     11532  TIP3      OH2            24.9502582311       20.5547394614      -23.5022933100  TIP3      11332           0.0000000000
     58911     11532  TIP3      H1             24.0229923385       20.6378387294      -23.1764605061  TIP3      11332           0.0000000000
     58912     11532  TIP3      H2             25.4543966328       20.5144233113      -22.6750218181  TIP3      11332           0.0000000000
     58913     11533  TIP3      OH2            19.7971767192       22.1845664981      -24.6680525351  TIP3      11333           0.0000000000
     58914     11533  TIP3      H1             18.8803653416       22.3275619401      -24.9683271838  TIP3      11333           0.0000000000
     58915     11533  TIP3      H2             20.0609036369       21.3140734233      -25.0066641048  TIP3      11333           0.0000000000
     58916     11534  TIP3      OH2            23.4100609727       22.2057252151      -27.0163967210  TIP3      11334           0.0000000000
     58917     11534  TIP3      H1             24.3645134159       22.3186834107      -26.8473441979  TIP3      11334           0.0000000000
     58918     11534  TIP3      H2             23.1740141423       22.9012490933      -27.6562807667  TIP3      11334           0.0000000000
     58919     11535  TIP3      OH2            22.1207098187       23.3919053543      -29.4116557453  TIP3      11335           0.0000000000
     58920     11535  TIP3      H1             21.5873542386       23.0099217062      -30.1290100195  TIP3      11335           0.0000000000
     58921     11535  TIP3      H2             22.9383391148       23.5979596386      -29.8895025806  TIP3      11335           0.0000000000
     58922     11536  TIP3      OH2            21.2775231727       19.4999378320      -25.1570188345  TIP3      11336           0.0000000000
     58923     11536  TIP3      H1             20.9491597989       18.5867962847      -25.1889690378  TIP3      11336           0.0000000000
     58924     11536  TIP3      H2             22.0454802360       19.4646093757      -25.7388796914  TIP3      11336           0.0000000000
     58925     11537  TIP3      OH2            25.4753477652       27.9037429947      -27.4552540177  TIP3      11337           0.0000000000
     58926     11537  TIP3      H1             24.6782731737       27.4560272993      -27.8260868211  TIP3      11337           0.0000000000
     58927     11537  TIP3      H2             25.2174402853       28.0366003585      -26.5227271093  TIP3      11337           0.0000000000
     58928     11538  TIP3      OH2            29.2955035206       20.7362611611      -29.3113853383  TIP3      11338           0.0000000000
     58929     11538  TIP3      H1             28.3477084473       20.8951704148      -29.4603120426  TIP3      11338           0.0000000000
     58930     11538  TIP3      H2             29.6411357540       21.5877623054      -28.9657203683  TIP3      11338           0.0000000000
     58931     11539  TIP3      OH2            30.0386502445       22.6500928544      -27.6848007785  TIP3      11339           0.0000000000
     58932     11539  TIP3      H1             30.9229104294       22.5334148170      -27.2810135216  TIP3      11339           0.0000000000
     58933     11539  TIP3      H2             30.1346156201       23.4689941731      -28.1991387057  TIP3      11339           0.0000000000
     58934     11540  TIP3      OH2            27.5769558727       29.3767058287      -28.4333691414  TIP3      11340           0.0000000000
     58935     11540  TIP3      H1             27.2189012559       30.2369340983      -28.1280585201  TIP3      11340           0.0000000000
     58936     11540  TIP3      H2             26.8285760041       28.7714521800      -28.2472955707  TIP3      11340           0.0000000000
     58937     11541  TIP3      OH2            34.9428136534       22.7898082289      -27.9086129513  TIP3      11341           0.0000000000
     58938     11541  TIP3      H1             34.3739754619       22.5024776300      -28.6460156969  TIP3      11341           0.0000000000
     58939     11541  TIP3      H2             35.0076375272       23.7402140363      -28.1660648379  TIP3      11341           0.0000000000
     58940     11542  TIP3      OH2            33.2117386062       31.6299573826      -27.5060648713  TIP3      11342           0.0000000000
     58941     11542  TIP3      H1             32.8788474383       30.7908026881      -27.1776016942  TIP3      11342           0.0000000000
     58942     11542  TIP3      H2             33.5628442476       31.4139693802      -28.3843955350  TIP3      11342           0.0000000000
     58943     11543  TIP3      OH2            22.9318724088       30.7685288248      -24.3053132545  TIP3      11343           0.0000000000
     58944     11543  TIP3      H1             23.4613904616       31.5637244034      -24.5010499406  TIP3      11343           0.0000000000
     58945     11543  TIP3      H2             22.0752136210       31.0358927462      -24.6507764085  TIP3      11343           0.0000000000
     58946     11544  TIP3      OH2            18.7233809332       25.6111346115      -29.7326289662  TIP3      11344           0.0000000000
     58947     11544  TIP3      H1             19.3015739970       26.2765304317      -29.3227650699  TIP3      11344           0.0000000000
     58948     11544  TIP3      H2             17.8326304723       25.9241066303      -29.4850567082  TIP3      11344           0.0000000000
     58949     11545  TIP3      OH2            24.4131157169       28.4466091567      -24.7524063156  TIP3      11345           0.0000000000
     58950     11545  TIP3      H1             24.0626403360       29.3577384306      -24.7195601230  TIP3      11345           0.0000000000
     58951     11545  TIP3      H2             23.6418228148       27.9619622320      -24.4027846355  TIP3      11345           0.0000000000
     58952     11546  TIP3      OH2            23.0467039350       33.4384327081      -25.2524347065  TIP3      11346           0.0000000000
     58953     11546  TIP3      H1             22.0792698520       33.5820553193      -25.1577536349  TIP3      11346           0.0000000000
     58954     11546  TIP3      H2             23.4108429504       34.2713065964      -24.9018346124  TIP3      11346           0.0000000000
     58955     11547  TIP3      OH2            30.6839390168       29.6874609467      -29.6805910189  TIP3      11347           0.0000000000
     58956     11547  TIP3      H1             30.9852082309       29.2312814083      -28.8738544700  TIP3      11347           0.0000000000
     58957     11547  TIP3      H2             29.7298202926       29.5167789180      -29.5783290936  TIP3      11347           0.0000000000
     58958     11548  TIP3      OH2            35.1332252757       34.0338846781      -29.3844470500  TIP3      11348           0.0000000000
     58959     11548  TIP3      H1             35.8184416057       34.6756396883      -29.6413269467  TIP3      11348           0.0000000000
     58960     11548  TIP3      H2             34.4088308353       34.6580765220      -29.1371756841  TIP3      11348           0.0000000000
     58961     11549  TIP3      OH2            31.4457104144       28.3708318116      -27.3656188858  TIP3      11349           0.0000000000
     58962     11549  TIP3      H1             31.2301149941       27.5316174519      -26.9053416399  TIP3      11349           0.0000000000
     58963     11549  TIP3      H2             32.4168155379       28.3595661538      -27.2847523907  TIP3      11349           0.0000000000
     58964     11550  TIP3      OH2            24.8133492342       30.7687233540      -31.1715218020  TIP3      11350           0.0000000000
     58965     11550  TIP3      H1             24.9100511234       30.0027103623      -31.7627926113  TIP3      11350           0.0000000000
     58966     11550  TIP3      H2             24.3681138956       30.3371459298      -30.4088440626  TIP3      11350           0.0000000000
     58967     11551  TIP3      OH2            23.5753583918       30.2953428700      -28.7138440542  TIP3      11351           0.0000000000
     58968     11551  TIP3      H1             23.8550394975       29.7827660378      -27.9457587277  TIP3      11351           0.0000000000
     58969     11551  TIP3      H2             23.6648657180       31.2244750731      -28.4008236385  TIP3      11351           0.0000000000
     58970     11552  TIP3      OH2            20.1293721777       27.5407845473      -28.2310415249  TIP3      11352           0.0000000000
     58971     11552  TIP3      H1             19.4135811803       27.9354423744      -27.6937154605  TIP3      11352           0.0000000000
     58972     11552  TIP3      H2             20.6295048821       28.3198945755      -28.5362129903  TIP3      11352           0.0000000000
     58973     11553  TIP3      OH2            28.7068386643       19.7902877634      -26.8504602194  TIP3      11353           0.0000000000
     58974     11553  TIP3      H1             28.9271674531       20.2617958474      -27.6791407093  TIP3      11353           0.0000000000
     58975     11553  TIP3      H2             29.2722518466       20.2308613379      -26.2002055845  TIP3      11353           0.0000000000
     58976     11554  TIP3      OH2            26.3907870727       31.9528103898      -28.0180042230  TIP3      11354           0.0000000000
     58977     11554  TIP3      H1             25.5710104953       32.4859546160      -27.9526976012  TIP3      11354           0.0000000000
     58978     11554  TIP3      H2             26.9274675921       32.5040319289      -28.6084775887  TIP3      11354           0.0000000000
     58979     11555  TIP3      OH2            25.9310094915       21.5709124596      -26.0174487450  TIP3      11355           0.0000000000
     58980     11555  TIP3      H1             26.7233115103       22.1317444513      -25.9429090534  TIP3      11355           0.0000000000
     58981     11555  TIP3      H2             25.6643675479       21.4182160297      -25.0918877928  TIP3      11355           0.0000000000
     58982     11556  TIP3      OH2            26.8006987409       18.6190601665      -25.0716367789  TIP3      11356           0.0000000000
     58983     11556  TIP3      H1             26.4753165143       19.3166851331      -24.4786427816  TIP3      11356           0.0000000000
     58984     11556  TIP3      H2             27.4648810125       19.1356065336      -25.5894982593  TIP3      11356           0.0000000000
     58985     11557  TIP3      OH2            23.7914428272       32.9937931987      -27.9973033027  TIP3      11357           0.0000000000
     58986     11557  TIP3      H1             23.8802822066       33.8103786012      -28.5507417581  TIP3      11357           0.0000000000
     58987     11557  TIP3      H2             23.5204780004       33.3601634324      -27.1281375414  TIP3      11357           0.0000000000
     58988     11558  TIP3      OH2            22.4343992604       19.7155589462      -28.4131190982  TIP3      11358           0.0000000000
     58989     11558  TIP3      H1             22.3887437887       20.6140626555      -28.0252534336  TIP3      11358           0.0000000000
     58990     11558  TIP3      H2             23.3446836398       19.4684855175      -28.1545554700  TIP3      11358           0.0000000000
     58991     11559  TIP3      OH2            31.3301878785       24.1856825431      -22.0402426744  TIP3      11359           0.0000000000
     58992     11559  TIP3      H1             30.4213217438       23.8486646383      -22.2170651809  TIP3      11359           0.0000000000
     58993     11559  TIP3      H2             31.6610175630       23.5613427613      -21.4048567185  TIP3      11359           0.0000000000
     58994     11560  TIP3      OH2            20.6675494009       30.1499426804      -29.3747229423  TIP3      11360           0.0000000000
     58995     11560  TIP3      H1             21.3346631487       30.7767831503      -29.0587119979  TIP3      11360           0.0000000000
     58996     11560  TIP3      H2             21.1883588419       29.6882832338      -30.0620575694  TIP3      11360           0.0000000000
     58997     11561  TIP3      OH2            19.0133261185       22.8274750988      -30.2336965222  TIP3      11361           0.0000000000
     58998     11561  TIP3      H1             19.0305221363       23.7869095088      -30.0257081383  TIP3      11361           0.0000000000
     58999     11561  TIP3      H2             18.1205674310       22.6526163079      -30.5352528729  TIP3      11361           0.0000000000
     59000     11562  TIP3      OH2            32.3997676469       33.3794850083      -20.3951109301  TIP3      11362           0.0000000000
     59001     11562  TIP3      H1             32.2074063303       34.1878440477      -20.9076724114  TIP3      11362           0.0000000000
     59002     11562  TIP3      H2             33.2520608504       33.6270534797      -20.0403416537  TIP3      11362           0.0000000000
     59003     11563  TIP3      OH2            19.8779320489       17.6113995341      -21.4983960104  TIP3      11363           0.0000000000
     59004     11563  TIP3      H1             19.6628741676       17.6667548831      -22.4499254557  TIP3      11363           0.0000000000
     59005     11563  TIP3      H2             19.4657092996       16.7755443193      -21.2483349739  TIP3      11363           0.0000000000
     59006     11564  TIP3      OH2            18.7965809781       31.5430568847      -25.3138903883  TIP3      11364           0.0000000000
     59007     11564  TIP3      H1             17.9326640606       31.9798278443      -25.4237989730  TIP3      11364           0.0000000000
     59008     11564  TIP3      H2             19.2559338603       31.9839962078      -26.0488921686  TIP3      11364           0.0000000000
     59009     11565  TIP3      OH2            26.8079681965       32.6173218818      -31.0409848854  TIP3      11365           0.0000000000
     59010     11565  TIP3      H1             26.1132582595       31.9579892952      -30.8226493071  TIP3      11365           0.0000000000
     59011     11565  TIP3      H2             27.5241848549       32.0187894833      -31.2966102977  TIP3      11365           0.0000000000
     59012     11566  TIP3      OH2            31.3601231810       32.3367985661      -30.8572506043  TIP3      11366           0.0000000000
     59013     11566  TIP3      H1             31.6738375926       31.5669968461      -30.3582142313  TIP3      11366           0.0000000000
     59014     11566  TIP3      H2             32.1131660803       32.6015872328      -31.4067235016  TIP3      11366           0.0000000000
     59015     11567  TIP3      OH2            22.2540614998       28.3046373917      -31.0435777162  TIP3      11367           0.0000000000
     59016     11567  TIP3      H1             22.3899099520       27.5413329624      -30.4622196525  TIP3      11367           0.0000000000
     59017     11567  TIP3      H2             23.0007785501       28.1834224434      -31.6622699262  TIP3      11367           0.0000000000
     59018     11568  TIP3      OH2            27.6804598554       29.4126978708      -31.2655400778  TIP3      11368           0.0000000000
     59019     11568  TIP3      H1             27.4095708407       29.4914713972      -30.3386464058  TIP3      11368           0.0000000000
     59020     11568  TIP3      H2             27.4940651647       28.4542448362      -31.4114236816  TIP3      11368           0.0000000000
     59021     11569  TIP3      OH2            23.4729152736       26.3162389091      -28.6107003810  TIP3      11369           0.0000000000
     59022     11569  TIP3      H1             22.9447558499       25.7816783595      -27.9984406239  TIP3      11369           0.0000000000
     59023     11569  TIP3      H2             23.7565784131       25.6448813210      -29.2719502763  TIP3      11369           0.0000000000
     59024     11570  TIP3      OH2            24.5300388626       24.5429449153      -30.4172188146  TIP3      11370           0.0000000000
     59025     11570  TIP3      H1             24.3786099816       24.4540009292      -31.3801854526  TIP3      11370           0.0000000000
     59026     11570  TIP3      H2             25.5061128047       24.5944089650      -30.3506386566  TIP3      11370           0.0000000000
     59027     11571  TIP3      OH2            33.8521821089       26.8650615982      -30.9961666645  TIP3      11371           0.0000000000
     59028     11571  TIP3      H1             33.6612203449       26.4834557988      -31.8718856192  TIP3      11371           0.0000000000
     59029     11571  TIP3      H2             33.9440411034       27.8251256561      -31.1943485531  TIP3      11371           0.0000000000
     59030     11572  TIP3      OH2            24.3550970594       35.2472992395      -29.3410516410  TIP3      11372           0.0000000000
     59031     11572  TIP3      H1             25.3224537212       35.3307491263      -29.2709651053  TIP3      11372           0.0000000000
     59032     11572  TIP3      H2             24.2108204978       35.8564607547      -30.0773634774  TIP3      11372           0.0000000000
     59033     11573  TIP3      OH2            17.9121317194       29.8152897285      -29.8680447494  TIP3      11373           0.0000000000
     59034     11573  TIP3      H1             18.8794634329       29.9103009090      -29.6900857557  TIP3      11373           0.0000000000
     59035     11573  TIP3      H2             17.9619049483       29.1734722462      -30.6161955127  TIP3      11373           0.0000000000
     59036     11574  TIP3      OH2            16.7261576484       35.2319672218      -24.9261405082  TIP3      11374           0.0000000000
     59037     11574  TIP3      H1             15.9957624108       34.7549020253      -25.3805379634  TIP3      11374           0.0000000000
     59038     11574  TIP3      H2             16.9962876479       34.5828984794      -24.2498566177  TIP3      11374           0.0000000000
     59039     11575  TIP3      OH2            17.5160381679       33.3171207763      -23.0664998597  TIP3      11375           0.0000000000
     59040     11575  TIP3      H1             17.1642416557       32.4532689941      -22.8530974444  TIP3      11375           0.0000000000
     59041     11575  TIP3      H2             17.7855512773       33.6702617373      -22.1912871446  TIP3      11375           0.0000000000
     59042     11576  TIP3      OH2            34.3408617562       27.7918331755      -27.0250398650  TIP3      11376           0.0000000000
     59043     11576  TIP3      H1             35.2225767504       28.1685579356      -26.8631198671  TIP3      11376           0.0000000000
     59044     11576  TIP3      H2             34.3665072769       27.0542698380      -26.3787894540  TIP3      11376           0.0000000000
     59045     11577  TIP3      OH2            34.7758666028       25.8252081402      -25.1875598130  TIP3      11377           0.0000000000
     59046     11577  TIP3      H1             34.0371546636       25.3379844320      -24.7668634475  TIP3      11377           0.0000000000
     59047     11577  TIP3      H2             35.3719387491       26.0120584385      -24.4316328862  TIP3      11377           0.0000000000
     59048     11578  TIP3      OH2            35.0539953457       25.6797771696      -28.7665808580  TIP3      11378           0.0000000000
     59049     11578  TIP3      H1             34.4968348780       26.0229942685      -29.4934753494  TIP3      11378           0.0000000000
     59050     11578  TIP3      H2             34.9738041232       26.4051489070      -28.1216144342  TIP3      11378           0.0000000000
     59051     11579  TIP3      OH2            33.3936776696       22.9176134076      -30.2593686514  TIP3      11379           0.0000000000
     59052     11579  TIP3      H1             33.5106753045       23.5704047983      -30.9588528905  TIP3      11379           0.0000000000
     59053     11579  TIP3      H2             33.2381492233       22.0862186286      -30.7503208958  TIP3      11379           0.0000000000
     59054     11580  TIP3      OH2            32.5570614179       24.3272005600      -24.5850889527  TIP3      11380           0.0000000000
     59055     11580  TIP3      H1             32.4079208202       23.3749186695      -24.6579970743  TIP3      11380           0.0000000000
     59056     11580  TIP3      H2             32.2100292568       24.5322635461      -23.7017106344  TIP3      11380           0.0000000000
     59057     11581  TIP3      OH2            32.6618084493       20.3756376408      -31.1151709682  TIP3      11381           0.0000000000
     59058     11581  TIP3      H1             33.2540726646       19.9385925724      -30.4769136448  TIP3      11381           0.0000000000
     59059     11581  TIP3      H2             31.7957737455       19.9618621696      -30.9677651880  TIP3      11381           0.0000000000
     59060     11582  TIP3      OH2            32.2195364160       21.9222452823      -26.1474650076  TIP3      11382           0.0000000000
     59061     11582  TIP3      H1             32.5349212925       20.9913615712      -26.0518760242  TIP3      11382           0.0000000000
     59062     11582  TIP3      H2             33.0250443143       22.3261051534      -26.5039307997  TIP3      11382           0.0000000000
     59063     11583  TIP3      OH2            32.8597370883       19.2250077262      -26.0688779868  TIP3      11383           0.0000000000
     59064     11583  TIP3      H1             33.1394784108       18.7453557030      -25.2547049736  TIP3      11383           0.0000000000
     59065     11583  TIP3      H2             32.3188314005       18.5584160660      -26.5415239486  TIP3      11383           0.0000000000
     59066     11584  TIP3      OH2            18.3524355650       20.0044421164      -21.5191248510  TIP3      11384           0.0000000000
     59067     11584  TIP3      H1             18.8728032514       19.2007422033      -21.2893600224  TIP3      11384           0.0000000000
     59068     11584  TIP3      H2             18.9070696540       20.6967278507      -21.1180088518  TIP3      11384           0.0000000000
     59069     11585  TIP3      OH2            34.7164455379       19.2280137167      -29.5230392321  TIP3      11385           0.0000000000
     59070     11585  TIP3      H1             35.1192249546       18.5206818054      -30.0745415096  TIP3      11385           0.0000000000
     59071     11585  TIP3      H2             35.4128170197       19.8996277530      -29.4965351049  TIP3      11385           0.0000000000
     59072     11586  TIP3      OH2            17.0439630685       19.2492931230      -26.4081390869  TIP3      11386           0.0000000000
     59073     11586  TIP3      H1             16.1038406322       19.4343723399      -26.5675955272  TIP3      11386           0.0000000000
     59074     11586  TIP3      H2             17.4629900466       19.7471296741      -27.1307549285  TIP3      11386           0.0000000000
     59075     11587  TIP3      OH2            31.7754509212       34.1683120931      -24.4112093844  TIP3      11387           0.0000000000
     59076     11587  TIP3      H1             32.4315193230       33.9246309271      -25.0962237135  TIP3      11387           0.0000000000
     59077     11587  TIP3      H2             32.2925103244       34.7282138918      -23.8122770031  TIP3      11387           0.0000000000
     59078     11588  TIP3      OH2            18.9532537351       33.9378296315      -20.8038034447  TIP3      11388           0.0000000000
     59079     11588  TIP3      H1             18.9679320735       33.6444083337      -19.8811963787  TIP3      11388           0.0000000000
     59080     11588  TIP3      H2             19.8345734728       33.6846680169      -21.1205385231  TIP3      11388           0.0000000000
     59081     11589  TIP3      OH2            21.1985817902       32.8066038467      -22.1545771165  TIP3      11389           0.0000000000
     59082     11589  TIP3      H1             21.0249705275       31.8906977122      -21.9160713999  TIP3      11389           0.0000000000
     59083     11589  TIP3      H2             22.0160049883       32.9263612853      -21.6228076054  TIP3      11389           0.0000000000
     59084     11590  TIP3      OH2            23.6286079220       33.2046109477      -21.2146866027  TIP3      11390           0.0000000000
     59085     11590  TIP3      H1             23.8484443094       32.2911213450      -21.4738697241  TIP3      11390           0.0000000000
     59086     11590  TIP3      H2             23.7318255207       33.1239028565      -20.2578518917  TIP3      11390           0.0000000000
     59087     11591  TIP3      OH2            27.1659320944       18.8482162642      -22.1104344714  TIP3      11391           0.0000000000
     59088     11591  TIP3      H1             26.5028408037       18.2582123260      -21.7736281142  TIP3      11391           0.0000000000
     59089     11591  TIP3      H2             27.7331373601       18.3257991747      -22.6927038561  TIP3      11391           0.0000000000
     59090     11592  TIP3      OH2            33.9359472141       18.1564558645      -23.7442627142  TIP3      11392           0.0000000000
     59091     11592  TIP3      H1             34.6215723319       17.5707683343      -24.1386204358  TIP3      11392           0.0000000000
     59092     11592  TIP3      H2             34.4592479376       18.9816202206      -23.6400708862  TIP3      11392           0.0000000000
     59093     11593  TIP3      OH2            19.5329146712       17.4949751659      -24.2633781939  TIP3      11393           0.0000000000
     59094     11593  TIP3      H1             18.7229497060       17.2922706592      -24.7627194916  TIP3      11393           0.0000000000
     59095     11593  TIP3      H2             19.9748134519       16.6238405131      -24.2751436974  TIP3      11393           0.0000000000
     59096     11594  TIP3      OH2            18.2839667019       17.2427285245      -28.5118148930  TIP3      11394           0.0000000000
     59097     11594  TIP3      H1             18.7839234022       17.8896583565      -29.0421202888  TIP3      11394           0.0000000000
     59098     11594  TIP3      H2             17.7171093642       17.8223478030      -27.9872989808  TIP3      11394           0.0000000000
     59099     11595  TIP3      OH2            24.0658916579       17.3266938775      -24.4619407756  TIP3      11395           0.0000000000
     59100     11595  TIP3      H1             24.9016399789       17.8234730143      -24.5087299173  TIP3      11395           0.0000000000
     59101     11595  TIP3      H2             23.8719883168       17.2803779479      -23.5363121421  TIP3      11395           0.0000000000
     59102     11596  TIP3      OH2            29.6405931334       17.4646144506      -22.8111000017  TIP3      11396           0.0000000000
     59103     11596  TIP3      H1             29.7014382347       17.5470266141      -23.7670414370  TIP3      11396           0.0000000000
     59104     11596  TIP3      H2             29.3545634757       16.5387478418      -22.7067099954  TIP3      11396           0.0000000000
     59105     11597  TIP3      OH2            30.9699534133       17.4581537682      -27.1158116716  TIP3      11397           0.0000000000
     59106     11597  TIP3      H1             30.2207681085       18.0453382990      -27.3021256047  TIP3      11397           0.0000000000
     59107     11597  TIP3      H2             30.5281221611       16.6007187032      -26.9079269827  TIP3      11397           0.0000000000
     59108     11598  TIP3      OH2            18.1984994545       33.1698779913      -27.4773479743  TIP3      11398           0.0000000000
     59109     11598  TIP3      H1             17.5400503759       33.1676048485      -28.1962513570  TIP3      11398           0.0000000000
     59110     11598  TIP3      H2             18.2013285959       34.1226547397      -27.2993241493  TIP3      11398           0.0000000000
     59111     11599  TIP3      OH2            20.1127291509       19.1802345207      -29.9970163583  TIP3      11399           0.0000000000
     59112     11599  TIP3      H1             20.6428440442       18.5624375178      -30.5276286811  TIP3      11399           0.0000000000
     59113     11599  TIP3      H2             20.7800071206       19.5021854736      -29.3631754158  TIP3      11399           0.0000000000
     59114     11600  TIP3      OH2            25.1395099600       19.4391115848      -27.5995391146  TIP3      11400           0.0000000000
     59115     11600  TIP3      H1             25.3963694839       18.8483058550      -26.8771884460  TIP3      11400           0.0000000000
     59116     11600  TIP3      H2             25.2102090402       20.2983434569      -27.1255479777  TIP3      11400           0.0000000000
     59117     11601  TIP3      OH2            27.0724157719       34.4910377852      -29.1453181550  TIP3      11401           0.0000000000
     59118     11601  TIP3      H1             27.9924023550       34.7154205095      -29.3646128639  TIP3      11401           0.0000000000
     59119     11601  TIP3      H2             26.8554952678       33.9739229331      -29.9504857036  TIP3      11401           0.0000000000
     59120     11602  TIP3      OH2            33.7959497115       34.0016540154      -26.4262625473  TIP3      11402           0.0000000000
     59121     11602  TIP3      H1             33.5942703094       33.2154045817      -26.9892634635  TIP3      11402           0.0000000000
     59122     11602  TIP3      H2             33.6988672179       34.7358034000      -27.0696631341  TIP3      11402           0.0000000000
     59123     11603  TIP3      OH2            20.0043237695       34.1906334065      -30.5480260445  TIP3      11403           0.0000000000
     59124     11603  TIP3      H1             19.7404073322       34.4129720580      -29.6432012670  TIP3      11403           0.0000000000
     59125     11603  TIP3      H2             20.7764517670       33.6104986101      -30.3939793772  TIP3      11403           0.0000000000
     59126     11604  TIP3      OH2           -40.4739532221       29.7024356868      -20.6948311316  TIP3      11404           0.0000000000
     59127     11604  TIP3      H1            -40.6701384883       28.9522476455      -21.2924537638  TIP3      11404           0.0000000000
     59128     11604  TIP3      H2            -39.5186056749       29.8005359452      -20.7859091950  TIP3      11404           0.0000000000
     59129     11605  TIP3      OH2            36.2309620016       23.5306514305      -25.3425510851  TIP3      11405           0.0000000000
     59130     11605  TIP3      H1             35.8359348389       24.4308254969      -25.3922401041  TIP3      11405           0.0000000000
     59131     11605  TIP3      H2             35.6351847628       23.0273131951      -25.9012993163  TIP3      11405           0.0000000000
     59132     11606  TIP3      OH2            36.9012227742       25.7817459795      -23.2400250034  TIP3      11406           0.0000000000
     59133     11606  TIP3      H1             37.1818260551       24.9972171091      -22.7315516745  TIP3      11406           0.0000000000
     59134     11606  TIP3      H2             37.6565100463       25.9314034769      -23.8270351464  TIP3      11406           0.0000000000
     59135     11607  TIP3      OH2            37.3354306917       23.3635904901      -22.2480189742  TIP3      11407           0.0000000000
     59136     11607  TIP3      H1             38.0607375942       22.8885095232      -21.7817570762  TIP3      11407           0.0000000000
     59137     11607  TIP3      H2             37.6287954288       23.0096020478      -23.1110221719  TIP3      11407           0.0000000000
     59138     11608  TIP3      OH2            39.2041943818       22.0297924945      -21.4565772788  TIP3      11408           0.0000000000
     59139     11608  TIP3      H1             39.5921200013       22.3509014862      -20.6310720820  TIP3      11408           0.0000000000
     59140     11608  TIP3      H2             39.6964687730       21.2130871899      -21.6278824724  TIP3      11408           0.0000000000
     59141     11609  TIP3      OH2            36.9705300960       28.9904016608      -27.0094637344  TIP3      11409           0.0000000000
     59142     11609  TIP3      H1             36.6535144222       29.3460272001      -27.8499750598  TIP3      11409           0.0000000000
     59143     11609  TIP3      H2             37.0379006436       29.8189445433      -26.4815018954  TIP3      11409           0.0000000000
     59144     11610  TIP3      OH2            39.0489288575       33.2675224282      -24.7382405730  TIP3      11410           0.0000000000
     59145     11610  TIP3      H1             39.3490337126       33.3226234259      -23.8108780368  TIP3      11410           0.0000000000
     59146     11610  TIP3      H2             38.0969375253       33.2971192375      -24.7140228369  TIP3      11410           0.0000000000
     59147     11611  TIP3      OH2            35.5942935348       20.3339708531      -23.7642202820  TIP3      11411           0.0000000000
     59148     11611  TIP3      H1             36.2714052146       20.2582959892      -23.0557569754  TIP3      11411           0.0000000000
     59149     11611  TIP3      H2             36.0441470102       19.9079286524      -24.5041972769  TIP3      11411           0.0000000000
     59150     11612  TIP3      OH2            36.8183101019       21.0026217677      -28.3744997922  TIP3      11412           0.0000000000
     59151     11612  TIP3      H1             37.3237935529       21.6261219339      -28.9343287460  TIP3      11412           0.0000000000
     59152     11612  TIP3      H2             36.1485208965       21.6225464117      -28.0120541511  TIP3      11412           0.0000000000
     59153     11613  TIP3      OH2            38.5278049537       22.2474466319      -24.7255207479  TIP3      11413           0.0000000000
     59154     11613  TIP3      H1             37.6104038078       22.3069804271      -25.0281185468  TIP3      11413           0.0000000000
     59155     11613  TIP3      H2             38.8669195398       21.3600467528      -24.9161406752  TIP3      11413           0.0000000000
     59156     11614  TIP3      OH2            39.3166462828       27.4217148066      -22.4371672098  TIP3      11414           0.0000000000
     59157     11614  TIP3      H1             40.2536672209       27.3872124870      -22.6209479157  TIP3      11414           0.0000000000
     59158     11614  TIP3      H2             39.3106934414       26.6718781734      -21.8210349537  TIP3      11414           0.0000000000
     59159     11615  TIP3      OH2            37.5683391660       25.6116268924      -29.7491210656  TIP3      11415           0.0000000000
     59160     11615  TIP3      H1             38.1296604966       26.2789373902      -29.3042187647  TIP3      11415           0.0000000000
     59161     11615  TIP3      H2             36.6573433613       25.9013173313      -29.5066507951  TIP3      11415           0.0000000000
     59162     11616  TIP3      OH2            38.9691723196       27.5237302023      -28.3200355940  TIP3      11416           0.0000000000
     59163     11616  TIP3      H1             38.3140670193       27.8550432469      -27.6642225281  TIP3      11416           0.0000000000
     59164     11616  TIP3      H2             39.4452859876       28.3399107744      -28.4863524524  TIP3      11416           0.0000000000
     59165     11617  TIP3      OH2            39.2689023530       30.2189915070      -29.2811000998  TIP3      11417           0.0000000000
     59166     11617  TIP3      H1             39.9774916778       30.8307401814      -29.0138559305  TIP3      11417           0.0000000000
     59167     11617  TIP3      H2             39.8382714833       29.7547367257      -29.9291437933  TIP3      11417           0.0000000000
     59168     11618  TIP3      OH2            37.8963283505       22.8534630030      -30.2175201978  TIP3      11418           0.0000000000
     59169     11618  TIP3      H1             37.8530473572       23.8152482492      -30.0484352799  TIP3      11418           0.0000000000
     59170     11618  TIP3      H2             37.0210516791       22.6554755443      -30.5658981838  TIP3      11418           0.0000000000
     59171     11619  TIP3      OH2            38.7490297604       17.5555112352      -21.5316076102  TIP3      11419           0.0000000000
     59172     11619  TIP3      H1             38.4170864409       17.7041761444      -22.4447118430  TIP3      11419           0.0000000000
     59173     11619  TIP3      H2             38.2076583154       16.8243148088      -21.1965197257  TIP3      11419           0.0000000000
     59174     11620  TIP3      OH2            37.4802718001       31.3837340198      -25.4961118733  TIP3      11420           0.0000000000
     59175     11620  TIP3      H1             36.7674636830       32.0243243677      -25.4090842854  TIP3      11420           0.0000000000
     59176     11620  TIP3      H2             38.1598198306       31.9380674479      -25.9406592797  TIP3      11420           0.0000000000
     59177     11621  TIP3      OH2            36.7631361245       29.8611785429      -29.9270907676  TIP3      11421           0.0000000000
     59178     11621  TIP3      H1             37.7161276475       29.9187150680      -29.6769047962  TIP3      11421           0.0000000000
     59179     11621  TIP3      H2             36.8120561629       29.1542059432      -30.6083123594  TIP3      11421           0.0000000000
     59180     11622  TIP3      OH2            35.5794934281       35.2308509827      -24.9126836755  TIP3      11422           0.0000000000
     59181     11622  TIP3      H1             34.8581963316       34.7387496982      -25.3668467174  TIP3      11422           0.0000000000
     59182     11622  TIP3      H2             35.8314905508       34.5828965907      -24.2277222874  TIP3      11422           0.0000000000
     59183     11623  TIP3      OH2            36.3961517150       33.2825766166      -23.0690687155  TIP3      11423           0.0000000000
     59184     11623  TIP3      H1             36.0150251278       32.4221999922      -22.8424332018  TIP3      11423           0.0000000000
     59185     11623  TIP3      H2             36.5674117290       33.7213994348      -22.2152354403  TIP3      11423           0.0000000000
     59186     11624  TIP3      OH2            37.2044711447       20.0220189699      -21.5472083454  TIP3      11424           0.0000000000
     59187     11624  TIP3      H1             37.6445903993       19.1984298345      -21.2701073102  TIP3      11424           0.0000000000
     59188     11624  TIP3      H2             37.7510793088       20.7022327425      -21.1620371719  TIP3      11424           0.0000000000
     59189     11625  TIP3      OH2            35.9186466296       19.2393298171      -26.4377888803  TIP3      11425           0.0000000000
     59190     11625  TIP3      H1             34.9769588870       19.4461116496      -26.5727343735  TIP3      11425           0.0000000000
     59191     11625  TIP3      H2             36.3368040049       19.7502645080      -27.1467031153  TIP3      11425           0.0000000000
     59192     11626  TIP3      OH2            38.0461219085       17.5080673826      -24.1108847830  TIP3      11426           0.0000000000
     59193     11626  TIP3      H1             37.4427163826       17.2997107635      -24.8396893251  TIP3      11426           0.0000000000
     59194     11626  TIP3      H2             38.8032426277       16.9219678898      -24.2363685511  TIP3      11426           0.0000000000
     59195     11627  TIP3      OH2            37.1355541254       17.2411748979      -28.5047759718  TIP3      11427           0.0000000000
     59196     11627  TIP3      H1             37.6159697520       17.8922780331      -29.0521101380  TIP3      11427           0.0000000000
     59197     11627  TIP3      H2             36.5428543753       17.8116913888      -27.9854388274  TIP3      11427           0.0000000000
     59198     11628  TIP3      OH2            37.0356955521       33.1794552688      -27.5055304736  TIP3      11428           0.0000000000
     59199     11628  TIP3      H1             36.3724718510       33.1883726643      -28.2154989016  TIP3      11428           0.0000000000
     59200     11628  TIP3      H2             37.0774201779       34.1237876278      -27.3039461373  TIP3      11428           0.0000000000
     59201     11629  TIP3      OH2            38.9890938512       19.1953595104      -29.9445829825  TIP3      11429           0.0000000000
     59202     11629  TIP3      H1             39.5089870878       18.5767840718      -30.4776055530  TIP3      11429           0.0000000000
     59203     11629  TIP3      H2             39.6500896878       19.5603388404      -29.3482829250  TIP3      11429           0.0000000000
     59204     11630  TIP3      OH2            38.8531063224       34.1343735872      -30.5480197178  TIP3      11430           0.0000000000
     59205     11630  TIP3      H1             38.5947709168       34.4711425909      -29.6759317365  TIP3      11430           0.0000000000
     59206     11630  TIP3      H2             39.6574842520       33.6442650798      -30.3624277651  TIP3      11430           0.0000000000
     59207     11631  TIP3      OH2           -34.2418503165       39.6316335679      -22.9775361006  TIP3      11431           0.0000000000
     59208     11631  TIP3      H1            -34.4215816871       40.5344380933      -23.2453762212  TIP3      11431           0.0000000000
     59209     11631  TIP3      H2            -34.8939895993       39.1137421230      -23.4887276349  TIP3      11431           0.0000000000
     59210     11632  TIP3      OH2           -26.6367834114      -40.0232158973      -24.6631519475  TIP3      11432           0.0000000000
     59211     11632  TIP3      H1            -26.1376181983      -40.3360522403      -23.8663129436  TIP3      11432           0.0000000000
     59212     11632  TIP3      H2            -26.0372853347      -39.3780777153      -25.0261317866  TIP3      11432           0.0000000000
     59213     11633  TIP3      OH2           -24.9912242820       38.6348723297      -22.6296878976  TIP3      11433           0.0000000000
     59214     11633  TIP3      H1            -25.2911758605       38.1810800960      -21.8238372675  TIP3      11433           0.0000000000
     59215     11633  TIP3      H2            -24.3522039688       39.2333709520      -22.1916074116  TIP3      11433           0.0000000000
     59216     11634  TIP3      OH2           -23.2468275267       35.8022129816      -28.3814231746  TIP3      11434           0.0000000000
     59217     11634  TIP3      H1            -24.1833220232       35.9671741741      -28.1177674011  TIP3      11434           0.0000000000
     59218     11634  TIP3      H2            -23.0331516847       36.6636349434      -28.8014122708  TIP3      11434           0.0000000000
     59219     11635  TIP3      OH2           -29.8664053434       39.0045286721      -29.8890820779  TIP3      11435           0.0000000000
     59220     11635  TIP3      H1            -30.3017617252       38.9989920179      -29.0249213556  TIP3      11435           0.0000000000
     59221     11635  TIP3      H2            -30.2631781116       38.1918836281      -30.2697152770  TIP3      11435           0.0000000000
     59222     11636  TIP3      OH2           -33.0792933145       39.3326862492      -30.7827146015  TIP3      11436           0.0000000000
     59223     11636  TIP3      H1            -33.5582187755       38.9971076446      -30.0088698963  TIP3      11436           0.0000000000
     59224     11636  TIP3      H2            -33.7412563453       39.8973887792      -31.1972811976  TIP3      11436           0.0000000000
     59225     11637  TIP3      OH2           -39.7617870839       39.1688448467      -23.7594770690  TIP3      11437           0.0000000000
     59226     11637  TIP3      H1            -39.1531886034       39.0889211053      -22.9939426468  TIP3      11437           0.0000000000
     59227     11637  TIP3      H2            -39.3567726646       38.6439187678      -24.4681912979  TIP3      11437           0.0000000000
     59228     11638  TIP3      OH2           -31.5637818502       39.1142431939      -23.4580923740  TIP3      11438           0.0000000000
     59229     11638  TIP3      H1            -32.4635965107       39.2420389836      -23.0957215464  TIP3      11438           0.0000000000
     59230     11638  TIP3      H2            -30.9886813955       39.1735649966      -22.6672687588  TIP3      11438           0.0000000000
     59231     11639  TIP3      OH2           -26.5462475662       38.2178843378      -20.2468457394  TIP3      11439           0.0000000000
     59232     11639  TIP3      H1            -27.2642799280       38.5933355507      -19.6504485130  TIP3      11439           0.0000000000
     59233     11639  TIP3      H2            -27.1043245208       38.4102650827      -20.9934499039  TIP3      11439           0.0000000000
     59234     11640  TIP3      OH2           -35.2994578827       38.3651749292      -25.1734437348  TIP3      11440           0.0000000000
     59235     11640  TIP3      H1            -35.5948709655       37.4419653543      -25.1897396353  TIP3      11440           0.0000000000
     59236     11640  TIP3      H2            -34.5100015208       38.3093345980      -25.7055948083  TIP3      11440           0.0000000000
     59237     11641  TIP3      OH2           -27.2692455918      -40.1671726142      -29.2006242263  TIP3      11441           0.0000000000
     59238     11641  TIP3      H1            -28.1857175323      -40.0485669307      -29.5246548005  TIP3      11441           0.0000000000
     59239     11641  TIP3      H2            -26.9282535757      -39.2678770083      -29.0886460723  TIP3      11441           0.0000000000
     59240     11642  TIP3      OH2           -27.9281967438       38.7147633550      -26.8042225477  TIP3      11442           0.0000000000
     59241     11642  TIP3      H1            -27.5803646674       39.0758401951      -27.6448174100  TIP3      11442           0.0000000000
     59242     11642  TIP3      H2            -27.3295562528       39.0785459210      -26.1202404424  TIP3      11442           0.0000000000
     59243     11643  TIP3      OH2           -29.8656290425       37.5701861667      -25.2922716658  TIP3      11443           0.0000000000
     59244     11643  TIP3      H1            -30.0323119068       38.0518420494      -24.4361356280  TIP3      11443           0.0000000000
     59245     11643  TIP3      H2            -29.0421559903       38.0175321233      -25.5677646724  TIP3      11443           0.0000000000
     59246     11644  TIP3      OH2           -34.0992552060       38.5675577174      -28.4233724250  TIP3      11444           0.0000000000
     59247     11644  TIP3      H1            -34.2057745138       39.4478048399      -28.0392642322  TIP3      11444           0.0000000000
     59248     11644  TIP3      H2            -33.2075005208       38.2735355544      -28.1653877647  TIP3      11444           0.0000000000
     59249     11645  TIP3      OH2           -23.9248743369       39.1408303460      -31.1551957428  TIP3      11445           0.0000000000
     59250     11645  TIP3      H1            -23.3039266800       38.8518041609      -30.4564582728  TIP3      11445           0.0000000000
     59251     11645  TIP3      H2            -24.7759830875       38.7558432659      -30.9165458272  TIP3      11445           0.0000000000
     59252     11646  TIP3      OH2           -23.6805146691       38.0179055308      -26.0624700892  TIP3      11446           0.0000000000
     59253     11646  TIP3      H1            -23.4512520485       37.5806606266      -25.2249154879  TIP3      11446           0.0000000000
     59254     11646  TIP3      H2            -24.2825306237       37.3911692867      -26.5012185104  TIP3      11446           0.0000000000
     59255     11647  TIP3      OH2           -38.1733186414       38.8121988677      -21.6323627936  TIP3      11447           0.0000000000
     59256     11647  TIP3      H1            -37.7532522020       37.9993147435      -21.3001804011  TIP3      11447           0.0000000000
     59257     11647  TIP3      H2            -37.9061808690       39.4590273905      -20.9825182748  TIP3      11447           0.0000000000
     59258     11648  TIP3      OH2           -21.7917886652       38.0007129102      -29.5310645905  TIP3      11448           0.0000000000
     59259     11648  TIP3      H1            -21.3890231233       37.3509821138      -30.1212390095  TIP3      11448           0.0000000000
     59260     11648  TIP3      H2            -21.1904785200       38.7675647033      -29.5471956479  TIP3      11448           0.0000000000
     59261     11649  TIP3      OH2           -39.4760748268       38.1676268784      -26.5300644639  TIP3      11449           0.0000000000
     59262     11649  TIP3      H1            -40.4242475311       38.3291527392      -26.5912758974  TIP3      11449           0.0000000000
     59263     11649  TIP3      H2            -39.0590650892       38.7185233492      -27.1936832851  TIP3      11449           0.0000000000
     59264     11650  TIP3      OH2           -29.8651105215       37.1555995392      -22.6513738912  TIP3      11450           0.0000000000
     59265     11650  TIP3      H1            -30.0379502783       37.0875256323      -21.7066713325  TIP3      11450           0.0000000000
     59266     11650  TIP3      H2            -28.8987238718       37.1960551739      -22.6069542946  TIP3      11450           0.0000000000
     59267     11651  TIP3      OH2           -24.2550439249       35.7823895493      -21.9671507061  TIP3      11451           0.0000000000
     59268     11651  TIP3      H1            -23.6858177193       36.4069755379      -22.4736930189  TIP3      11451           0.0000000000
     59269     11651  TIP3      H2            -25.1530222454       36.1113125957      -22.1970385413  TIP3      11451           0.0000000000
     59270     11652  TIP3      OH2           -22.5748724961       36.9591470682      -23.6850829488  TIP3      11452           0.0000000000
     59271     11652  TIP3      H1            -21.8996262289       36.4483588819      -24.1815291810  TIP3      11452           0.0000000000
     59272     11652  TIP3      H2            -22.1453387204       37.8422175517      -23.6415291209  TIP3      11452           0.0000000000
     59273     11653  TIP3      OH2           -38.3145815705       36.1003497437      -28.5518362293  TIP3      11453           0.0000000000
     59274     11653  TIP3      H1            -37.7799536630       36.7398093190      -29.0586718904  TIP3      11453           0.0000000000
     59275     11653  TIP3      H2            -38.8245704452       36.6538794559      -27.9388016240  TIP3      11453           0.0000000000
     59276     11654  TIP3      OH2           -32.5715626238       36.3347085192      -24.4625725524  TIP3      11454           0.0000000000
     59277     11654  TIP3      H1            -31.6361446193       36.6131436525      -24.4721637492  TIP3      11454           0.0000000000
     59278     11654  TIP3      H2            -32.6324343542       36.0304374266      -23.5480752899  TIP3      11454           0.0000000000
     59279     11655  TIP3      OH2           -26.8757830833       36.2942936399      -22.8407853908  TIP3      11455           0.0000000000
     59280     11655  TIP3      H1            -26.9283588058       36.4135447376      -23.7869772008  TIP3      11455           0.0000000000
     59281     11655  TIP3      H2            -27.3116480439       35.4234221261      -22.6845348821  TIP3      11455           0.0000000000
     59282     11656  TIP3      OH2           -25.5938837238       36.3495527999      -27.1503470694  TIP3      11456           0.0000000000
     59283     11656  TIP3      H1            -26.3603388695       36.9162601301      -27.2791012674  TIP3      11456           0.0000000000
     59284     11656  TIP3      H2            -26.0224640766       35.4906524338      -26.9050693324  TIP3      11456           0.0000000000
     59285     11657  TIP3      OH2           -36.4401415510       38.0693226339      -30.0162412360  TIP3      11457           0.0000000000
     59286     11657  TIP3      H1            -35.9432539130       37.4086414495      -30.5307522347  TIP3      11457           0.0000000000
     59287     11657  TIP3      H2            -35.7571478932       38.3079597255      -29.3604692434  TIP3      11457           0.0000000000
     59288     11658  TIP3      OH2           -31.3484431022       38.3680221146      -27.5897258133  TIP3      11458           0.0000000000
     59289     11658  TIP3      H1            -31.1630881735       37.6833747537      -26.9034888649  TIP3      11458           0.0000000000
     59290     11658  TIP3      H2            -31.4729641782       39.1244236583      -27.0321292053  TIP3      11458           0.0000000000
     59291     11659  TIP3      OH2            -7.8379640281      -40.0217441596      -24.5847236233  TIP3      11459           0.0000000000
     59292     11659  TIP3      H1             -7.2351565701      -40.2814004156      -23.8466790504  TIP3      11459           0.0000000000
     59293     11659  TIP3      H2             -7.2567448513      -39.4054813120      -25.0401547319  TIP3      11459           0.0000000000
     59294     11660  TIP3      OH2            -6.0307911380       39.0295596086      -22.5815730096  TIP3      11460           0.0000000000
     59295     11660  TIP3      H1             -6.3077004634       38.3912992900      -21.9308398399  TIP3      11460           0.0000000000
     59296     11660  TIP3      H2             -5.5318618181       39.6623620623      -22.0324083132  TIP3      11460           0.0000000000
     59297     11661  TIP3      OH2           -12.7115282481       35.9534725187      -21.4015101061  TIP3      11461           0.0000000000
     59298     11661  TIP3      H1            -12.8447680137       34.9846070493      -21.4132662232  TIP3      11461           0.0000000000
     59299     11661  TIP3      H2            -13.5659785646       36.2366634398      -21.0267051135  TIP3      11461           0.0000000000
     59300     11662  TIP3      OH2            -4.3977653887       35.8258422268      -28.3666936425  TIP3      11462           0.0000000000
     59301     11662  TIP3      H1             -5.3374113523       35.9751037166      -28.1204066275  TIP3      11462           0.0000000000
     59302     11662  TIP3      H2             -4.1765413815       36.6874915323      -28.7815856274  TIP3      11462           0.0000000000
     59303     11663  TIP3      OH2           -11.0165694634       38.9868029738      -29.9193592941  TIP3      11463           0.0000000000
     59304     11663  TIP3      H1            -11.4289294412       39.0404315384      -29.0384668614  TIP3      11463           0.0000000000
     59305     11663  TIP3      H2            -11.4352085494       38.1690597043      -30.2566594211  TIP3      11463           0.0000000000
     59306     11664  TIP3      OH2           -14.2426371278       39.3093737448      -30.8154943488  TIP3      11464           0.0000000000
     59307     11664  TIP3      H1            -14.6789942468       39.0126924917      -29.9991161934  TIP3      11464           0.0000000000
     59308     11664  TIP3      H2            -14.9016855874       39.8922763805      -31.1981445846  TIP3      11464           0.0000000000
     59309     11665  TIP3      OH2           -20.9649165060       39.1830677091      -23.7477351382  TIP3      11465           0.0000000000
     59310     11665  TIP3      H1            -20.3098266793       39.1411589647      -23.0172065222  TIP3      11465           0.0000000000
     59311     11665  TIP3      H2            -20.5058081315       38.7445953909      -24.4943610627  TIP3      11465           0.0000000000
     59312     11666  TIP3      OH2           -12.6464895514       38.8964870156      -23.4408918445  TIP3      11466           0.0000000000
     59313     11666  TIP3      H1            -13.5220554211       39.2507841816      -23.2920993851  TIP3      11466           0.0000000000
     59314     11666  TIP3      H2            -12.1180299724       39.3458185575      -22.7419654619  TIP3      11466           0.0000000000
     59315     11667  TIP3      OH2            -8.5735822173       38.2982287156      -20.2534981554  TIP3      11467           0.0000000000
     59316     11667  TIP3      H1             -9.0304450561       38.9017879288      -19.6432576269  TIP3      11467           0.0000000000
     59317     11667  TIP3      H2             -8.9323069183       38.6138846253      -21.0990347043  TIP3      11467           0.0000000000
     59318     11668  TIP3      OH2           -16.4592055079       38.3801275701      -25.2042689947  TIP3      11468           0.0000000000
     59319     11668  TIP3      H1            -16.7566964760       37.4525013004      -25.1812783317  TIP3      11468           0.0000000000
     59320     11668  TIP3      H2            -15.6528589394       38.3296310445      -25.7236185472  TIP3      11468           0.0000000000
     59321     11669  TIP3      OH2            -8.3962424591      -40.1687834791      -29.2449811858  TIP3      11469           0.0000000000
     59322     11669  TIP3      H1             -9.3379015971      -40.0480497772      -29.4953256115  TIP3      11469           0.0000000000
     59323     11669  TIP3      H2             -8.0889813402      -39.2698581974      -29.0672015327  TIP3      11469           0.0000000000
     59324     11670  TIP3      OH2            -9.0301724816       38.6770195948      -26.8449555520  TIP3      11470           0.0000000000
     59325     11670  TIP3      H1             -8.7529070648       39.1054395534      -27.6747590858  TIP3      11470           0.0000000000
     59326     11670  TIP3      H2             -8.5079706824       39.1100667526      -26.1381967928  TIP3      11470           0.0000000000
     59327     11671  TIP3      OH2           -10.9127070617       37.4932448718      -25.1403041077  TIP3      11471           0.0000000000
     59328     11671  TIP3      H1            -11.2503502337       38.1485934927      -24.4972469271  TIP3      11471           0.0000000000
     59329     11671  TIP3      H2            -10.2237901854       38.0346101746      -25.5782185664  TIP3      11471           0.0000000000
     59330     11672  TIP3      OH2           -15.2398395929       38.5647773499      -28.4238012559  TIP3      11472           0.0000000000
     59331     11672  TIP3      H1            -15.3222031818       39.4435816888      -28.0201474113  TIP3      11472           0.0000000000
     59332     11672  TIP3      H2            -14.3426906893       38.2874295671      -28.1539525742  TIP3      11472           0.0000000000
     59333     11673  TIP3      OH2           -17.8733943714       36.5161317844      -21.5378112588  TIP3      11473           0.0000000000
     59334     11673  TIP3      H1            -18.0562572440       36.4803083000      -22.4936902580  TIP3      11473           0.0000000000
     59335     11673  TIP3      H2            -18.2124902299       35.6767956801      -21.2297527937  TIP3      11473           0.0000000000
     59336     11674  TIP3      OH2            -5.0708899713       39.1430160173      -31.1537678141  TIP3      11474           0.0000000000
     59337     11674  TIP3      H1             -4.4483273120       38.8528211173      -30.4572140526  TIP3      11474           0.0000000000
     59338     11674  TIP3      H2             -5.9201864578       38.7547890158      -30.9159846662  TIP3      11474           0.0000000000
     59339     11675  TIP3      OH2            -4.8185503480       38.0216183287      -26.0817264824  TIP3      11475           0.0000000000
     59340     11675  TIP3      H1             -4.6012868386       37.5999163122      -25.2401485350  TIP3      11475           0.0000000000
     59341     11675  TIP3      H2             -5.4223094926       37.3920036659      -26.5102634976  TIP3      11475           0.0000000000
     59342     11676  TIP3      OH2           -19.3186173990       38.7578419134      -21.6240350749  TIP3      11476           0.0000000000
     59343     11676  TIP3      H1            -18.8688472118       37.9483547352      -21.2819023068  TIP3      11476           0.0000000000
     59344     11676  TIP3      H2            -19.1059437650       39.3888740645      -20.9381631909  TIP3      11476           0.0000000000
     59345     11677  TIP3      OH2            -2.9271706968       37.9903719103      -29.5181676546  TIP3      11477           0.0000000000
     59346     11677  TIP3      H1             -2.5388017937       37.3524005017      -30.1327117597  TIP3      11477           0.0000000000
     59347     11677  TIP3      H2             -2.3374454776       38.7656688751      -29.5473609035  TIP3      11477           0.0000000000
     59348     11678  TIP3      OH2           -20.6434777294       38.1625367225      -26.4079747262  TIP3      11478           0.0000000000
     59349     11678  TIP3      H1            -21.5987756761       38.3044389394      -26.5623617585  TIP3      11478           0.0000000000
     59350     11678  TIP3      H2            -20.2597758925       38.6636467761      -27.1352473413  TIP3      11478           0.0000000000
     59351     11679  TIP3      OH2           -10.5032940083       37.6763298877      -22.0295370845  TIP3      11479           0.0000000000
     59352     11679  TIP3      H1            -11.2322370589       37.0716855515      -21.8241518251  TIP3      11479           0.0000000000
     59353     11679  TIP3      H2            -10.0186485950       37.1766590737      -22.6888523158  TIP3      11479           0.0000000000
     59354     11680  TIP3      OH2            -5.3786008026       35.8226121742      -21.9292849066  TIP3      11480           0.0000000000
     59355     11680  TIP3      H1             -4.7930648231       36.3751302933      -22.5089193083  TIP3      11480           0.0000000000
     59356     11680  TIP3      H2             -6.2620038214       36.0814471497      -22.2853245017  TIP3      11480           0.0000000000
     59357     11681  TIP3      OH2            -3.7229486468       36.9429953767      -23.6662801323  TIP3      11481           0.0000000000
     59358     11681  TIP3      H1             -3.0577627644       36.4579996289      -24.2031595591  TIP3      11481           0.0000000000
     59359     11681  TIP3      H2             -3.3214338355       37.8525751452      -23.6710136507  TIP3      11481           0.0000000000
     59360     11682  TIP3      OH2           -18.2032815829       36.3293074553      -24.2908455628  TIP3      11482           0.0000000000
     59361     11682  TIP3      H1            -19.0026422994       36.1238231314      -24.8027005480  TIP3      11482           0.0000000000
     59362     11682  TIP3      H2            -17.7216789749       35.4790456779      -24.2961211108  TIP3      11482           0.0000000000
     59363     11683  TIP3      OH2           -19.3987378347       36.0833065891      -28.4970363257  TIP3      11483           0.0000000000
     59364     11683  TIP3      H1            -18.9249850638       36.7545543071      -29.0281461869  TIP3      11483           0.0000000000
     59365     11683  TIP3      H2            -19.9980689725       36.6483817423      -27.9733553072  TIP3      11483           0.0000000000
     59366     11684  TIP3      OH2           -13.6895244166       36.2409976378      -24.4665166714  TIP3      11484           0.0000000000
     59367     11684  TIP3      H1            -12.8041813951       36.6359025423      -24.4930358678  TIP3      11484           0.0000000000
     59368     11684  TIP3      H2            -13.7737376227       36.0473937726      -23.5267734844  TIP3      11484           0.0000000000
     59369     11685  TIP3      OH2            -7.9943814861       36.3116972041      -22.7767458770  TIP3      11485           0.0000000000
     59370     11685  TIP3      H1             -8.0356840646       36.4343662692      -23.7349809792  TIP3      11485           0.0000000000
     59371     11685  TIP3      H2             -8.4433527612       35.4292808122      -22.7039503346  TIP3      11485           0.0000000000
     59372     11686  TIP3      OH2            -6.7503700966       36.3486234699      -27.1489824164  TIP3      11486           0.0000000000
     59373     11686  TIP3      H1             -7.5093654325       36.9193221010      -27.3055793983  TIP3      11486           0.0000000000
     59374     11686  TIP3      H2             -7.1696027883       35.4861163155      -26.9124735894  TIP3      11486           0.0000000000
     59375     11687  TIP3      OH2           -17.5711489546       38.0766940601      -29.9912482741  TIP3      11487           0.0000000000
     59376     11687  TIP3      H1            -17.0876701036       37.4160385974      -30.5202417220  TIP3      11487           0.0000000000
     59377     11687  TIP3      H2            -16.8854979797       38.3152116889      -29.3389720609  TIP3      11487           0.0000000000
     59378     11688  TIP3      OH2           -12.5309454295       38.3506194589      -27.5721559013  TIP3      11488           0.0000000000
     59379     11688  TIP3      H1            -12.3228885517       37.7008831605      -26.8725941133  TIP3      11488           0.0000000000
     59380     11688  TIP3      H2            -12.5385351536       39.1803976609      -27.0720508181  TIP3      11488           0.0000000000
     59381     11689  TIP3      OH2             3.3532847541       39.6876374632      -22.8447783452  TIP3      11489           0.0000000000
     59382     11689  TIP3      H1              3.3273876100       40.5124574298      -23.3335063540  TIP3      11489           0.0000000000
     59383     11689  TIP3      H2              2.8690984367       39.1087879219      -23.4684077307  TIP3      11489           0.0000000000
     59384     11690  TIP3      OH2            11.1545683770      -40.1546620616      -24.8019688967  TIP3      11490           0.0000000000
     59385     11690  TIP3      H1             11.6463234754      -40.3979923025      -23.9705201781  TIP3      11490           0.0000000000
     59386     11690  TIP3      H2             11.6841452645      -39.4097009327      -25.1124240616  TIP3      11490           0.0000000000
     59387     11691  TIP3      OH2            12.7273234981       38.6745405978      -22.6562236309  TIP3      11491           0.0000000000
     59388     11691  TIP3      H1             12.4385462167       38.1514924044      -21.9023187233  TIP3      11491           0.0000000000
     59389     11691  TIP3      H2             13.3843413462       39.2428820829      -22.2025570633  TIP3      11491           0.0000000000
     59390     11692  TIP3      OH2            14.4503601753       35.8252014091      -28.3814934507  TIP3      11492           0.0000000000
     59391     11692  TIP3      H1             13.5220898165       35.9803797772      -28.1003791669  TIP3      11492           0.0000000000
     59392     11692  TIP3      H2             14.6770719115       36.6898809095      -28.7856567197  TIP3      11492           0.0000000000
     59393     11693  TIP3      OH2             7.8449666830       38.9844524849      -29.9215233069  TIP3      11493           0.0000000000
     59394     11693  TIP3      H1              7.4297025034       39.0416293230      -29.0407710331  TIP3      11493           0.0000000000
     59395     11693  TIP3      H2              7.4225769590       38.1690531236      -30.2566867622  TIP3      11493           0.0000000000
     59396     11694  TIP3      OH2             4.6155934655       39.3041997670      -30.8127166520  TIP3      11494           0.0000000000
     59397     11694  TIP3      H1              4.1733140951       39.0142393033      -29.9996233642  TIP3      11494           0.0000000000
     59398     11694  TIP3      H2              3.9589730521       39.8935639001      -31.1973192779  TIP3      11494           0.0000000000
     59399     11695  TIP3      OH2            -2.1414912043       39.1018885787      -23.7699490751  TIP3      11495           0.0000000000
     59400     11695  TIP3      H1             -1.4878315955       39.2091559006      -23.0490272778  TIP3      11495           0.0000000000
     59401     11695  TIP3      H2             -1.6085933496       38.7735181874      -24.5136682754  TIP3      11495           0.0000000000
     59402     11696  TIP3      OH2             6.2247918151       38.9598862270      -23.4474313462  TIP3      11496           0.0000000000
     59403     11696  TIP3      H1              5.3034968275       39.2136857892      -23.2313178972  TIP3      11496           0.0000000000
     59404     11696  TIP3      H2              6.6827924793       39.3672848131      -22.6816738127  TIP3      11496           0.0000000000
     59405     11697  TIP3      OH2            10.5210271593       38.4590514145      -20.2129893994  TIP3      11497           0.0000000000
     59406     11697  TIP3      H1              9.9105151290       38.8513683644      -19.5633469887  TIP3      11497           0.0000000000
     59407     11697  TIP3      H2              9.9978610758       38.5153995117      -21.0110195087  TIP3      11497           0.0000000000
     59408     11698  TIP3      OH2             2.4229534563       38.3680129840      -25.1423441182  TIP3      11498           0.0000000000
     59409     11698  TIP3      H1              2.0925413787       37.4538659199      -25.1989713545  TIP3      11498           0.0000000000
     59410     11698  TIP3      H2              3.1970451528       38.3397722664      -25.7147644556  TIP3      11498           0.0000000000
     59411     11699  TIP3      OH2            10.4567725571      -40.1663230790      -29.2369485670  TIP3      11499           0.0000000000
     59412     11699  TIP3      H1              9.5178743560      -40.0475854357      -29.5006233968  TIP3      11499           0.0000000000
     59413     11699  TIP3      H2             10.7703467310      -39.2679554690      -29.0764948952  TIP3      11499           0.0000000000
     59414     11700  TIP3      OH2             9.8134659934       38.6601546070      -26.8571054171  TIP3      11500           0.0000000000
     59415     11700  TIP3      H1             10.1011681573       39.1084246155      -27.6705329677  TIP3      11500           0.0000000000
     59416     11700  TIP3      H2             10.3641772918       39.0600887339      -26.1449764998  TIP3      11500           0.0000000000
     59417     11701  TIP3      OH2             7.9099981388       37.5082455606      -25.2072393754  TIP3      11501           0.0000000000
     59418     11701  TIP3      H1              7.6110542426       38.1260172477      -24.5027548972  TIP3      11501           0.0000000000
     59419     11701  TIP3      H2              8.6360696595       38.0358731896      -25.5905657323  TIP3      11501           0.0000000000
     59420     11702  TIP3      OH2             3.6067214261       38.5541962463      -28.4005249533  TIP3      11502           0.0000000000
     59421     11702  TIP3      H1              3.5346973453       39.4492389154      -28.0341717610  TIP3      11502           0.0000000000
     59422     11702  TIP3      H2              4.5163951189       38.2890713061      -28.1532988070  TIP3      11502           0.0000000000
     59423     11703  TIP3      OH2            13.7850845852       39.1426473940      -31.1539900825  TIP3      11503           0.0000000000
     59424     11703  TIP3      H1             14.4082351828       38.8517703108      -30.4583784307  TIP3      11503           0.0000000000
     59425     11703  TIP3      H2             12.9355528955       38.7539447910      -30.9164899114  TIP3      11503           0.0000000000
     59426     11704  TIP3      OH2            14.0549548903       38.0014849054      -26.0635514312  TIP3      11504           0.0000000000
     59427     11704  TIP3      H1             14.2485001577       37.5779402735      -25.2129722515  TIP3      11504           0.0000000000
     59428     11704  TIP3      H2             13.4281851101       37.3934521506      -26.5012581869  TIP3      11504           0.0000000000
     59429     11705  TIP3      OH2            -0.3890178639       38.8152750703      -21.5955461626  TIP3      11505           0.0000000000
     59430     11705  TIP3      H1              0.1025311021       38.0808754801      -21.2456703290  TIP3      11505           0.0000000000
     59431     11705  TIP3      H2             -0.0197249877       39.5680632810      -21.0923645505  TIP3      11505           0.0000000000
     59432     11706  TIP3      OH2            15.9271083952       37.9928711551      -29.5236558479  TIP3      11506           0.0000000000
     59433     11706  TIP3      H1             16.3187538028       37.3513944082      -30.1331215026  TIP3      11506           0.0000000000
     59434     11706  TIP3      H2             16.5196501104       38.7667401519      -29.5482073338  TIP3      11506           0.0000000000
     59435     11707  TIP3      OH2            -1.7628910569       38.1230458064      -26.3998301784  TIP3      11507           0.0000000000
     59436     11707  TIP3      H1             -2.7154014657       38.2909202049      -26.5400844561  TIP3      11507           0.0000000000
     59437     11707  TIP3      H2             -1.3929640874       38.6505561156      -27.1144706591  TIP3      11507           0.0000000000
     59438     11708  TIP3      OH2            15.1113005670       36.9397779005      -23.6808772061  TIP3      11508           0.0000000000
     59439     11708  TIP3      H1             15.7943954318       36.4380113788      -24.1788568531  TIP3      11508           0.0000000000
     59440     11708  TIP3      H2             15.5597195338       37.8163800268      -23.6238710808  TIP3      11508           0.0000000000
     59441     11709  TIP3      OH2             0.6317280166       36.3327836844      -24.2281353767  TIP3      11509           0.0000000000
     59442     11709  TIP3      H1             -0.1247937841       36.1518886050      -24.8079957704  TIP3      11509           0.0000000000
     59443     11709  TIP3      H2              1.1424210156       35.5034298826      -24.2957826845  TIP3      11509           0.0000000000
     59444     11710  TIP3      OH2            -0.5166053523       36.0977516546      -28.4690812791  TIP3      11510           0.0000000000
     59445     11710  TIP3      H1             -0.0706659680       36.7475707107      -29.0437720047  TIP3      11510           0.0000000000
     59446     11710  TIP3      H2             -1.1489947444       36.6613949824      -27.9851959665  TIP3      11510           0.0000000000
     59447     11711  TIP3      OH2             5.1649220058       36.2629488238      -24.4702647077  TIP3      11511           0.0000000000
     59448     11711  TIP3      H1              6.0599746657       36.6446661702      -24.5025588074  TIP3      11511           0.0000000000
     59449     11711  TIP3      H2              5.0719781628       36.0800131375      -23.5290164243  TIP3      11511           0.0000000000
     59450     11712  TIP3      OH2            10.8144346192       36.2889800606      -22.7722660962  TIP3      11512           0.0000000000
     59451     11712  TIP3      H1             10.7861872291       36.4281392745      -23.7237605235  TIP3      11512           0.0000000000
     59452     11712  TIP3      H2             10.3867691516       35.4130136104      -22.7128060461  TIP3      11512           0.0000000000
     59453     11713  TIP3      OH2            12.1068401058       36.3618721996      -27.1278312783  TIP3      11513           0.0000000000
     59454     11713  TIP3      H1             11.3442981909       36.9169238876      -27.3138685800  TIP3      11513           0.0000000000
     59455     11713  TIP3      H2             11.6913995038       35.4970125463      -26.8998144785  TIP3      11513           0.0000000000
     59456     11714  TIP3      OH2             1.2830825071       38.0763321839      -30.0009576420  TIP3      11514           0.0000000000
     59457     11714  TIP3      H1              1.7690584592       37.4116665314      -30.5230690462  TIP3      11514           0.0000000000
     59458     11714  TIP3      H2              1.9672028476       38.3153338539      -29.3492620847  TIP3      11514           0.0000000000
     59459     11715  TIP3      OH2             6.3143421048       38.3587482821      -27.5618725099  TIP3      11515           0.0000000000
     59460     11715  TIP3      H1              6.5491020916       37.7011003597      -26.8808028576  TIP3      11515           0.0000000000
     59461     11715  TIP3      H2              6.3232079695       39.1819300629      -27.0544908661  TIP3      11515           0.0000000000
     59462     11716  TIP3      OH2            22.2017789199       39.5995440790      -22.8801223339  TIP3      11516           0.0000000000
     59463     11716  TIP3      H1             22.2033393567       40.4837802362      -23.2890534472  TIP3      11516           0.0000000000
     59464     11716  TIP3      H2             21.7130857560       39.0986276217      -23.5567688875  TIP3      11516           0.0000000000
     59465     11717  TIP3      OH2            29.8499238743      -39.9619792930      -24.5459854890  TIP3      11517           0.0000000000
     59466     11717  TIP3      H1             30.4942018397      -40.3207062350      -23.8912123619  TIP3      11517           0.0000000000
     59467     11717  TIP3      H2             30.4480867271      -39.4099551707      -25.0572735510  TIP3      11517           0.0000000000
     59468     11718  TIP3      OH2            31.5274237997       39.0459771403      -22.6707604881  TIP3      11518           0.0000000000
     59469     11718  TIP3      H1             31.4380334758       38.2638271254      -22.1005257076  TIP3      11518           0.0000000000
     59470     11718  TIP3      H2             32.2498656276       39.5218788595      -22.2172042781  TIP3      11518           0.0000000000
     59471     11719  TIP3      OH2            33.3149157561       35.8273617062      -28.3743343844  TIP3      11519           0.0000000000
     59472     11719  TIP3      H1             32.3769368430       35.9714584755      -28.1150293102  TIP3      11519           0.0000000000
     59473     11719  TIP3      H2             33.5341311134       36.6915452165      -28.7830607967  TIP3      11519           0.0000000000
     59474     11720  TIP3      OH2            26.7018268268       38.9833237264      -29.9212488815  TIP3      11520           0.0000000000
     59475     11720  TIP3      H1             26.2840052297       39.0419785731      -29.0412587756  TIP3      11520           0.0000000000
     59476     11720  TIP3      H2             26.2766692923       38.1697066497      -30.2578971063  TIP3      11520           0.0000000000
     59477     11721  TIP3      OH2            23.4715329815       39.3044362401      -30.8120882233  TIP3      11521           0.0000000000
     59478     11721  TIP3      H1             23.0291822021       39.0141328607      -29.9993696632  TIP3      11521           0.0000000000
     59479     11721  TIP3      H2             22.8145178320       39.8926664222      -31.1980271164  TIP3      11521           0.0000000000
     59480     11722  TIP3      OH2            16.7463131194       39.1835457887      -23.7604613603  TIP3      11522           0.0000000000
     59481     11722  TIP3      H1             17.3836161661       39.1371185149      -23.0095488092  TIP3      11522           0.0000000000
     59482     11722  TIP3      H2             17.2236165439       38.7235681937      -24.4732331889  TIP3      11522           0.0000000000
     59483     11723  TIP3      OH2            25.0469114673       38.8427322271      -23.4857584819  TIP3      11523           0.0000000000
     59484     11723  TIP3      H1             24.1892033297       39.2586026718      -23.2799306630  TIP3      11523           0.0000000000
     59485     11723  TIP3      H2             25.5436353445       39.3305515031      -22.7805004051  TIP3      11523           0.0000000000
     59486     11724  TIP3      OH2            21.2747667599       38.3542610226      -25.1480329267  TIP3      11524           0.0000000000
     59487     11724  TIP3      H1             20.9400719595       37.4379513674      -25.2133740646  TIP3      11524           0.0000000000
     59488     11724  TIP3      H2             22.0507247283       38.3433791067      -25.7207348928  TIP3      11524           0.0000000000
     59489     11725  TIP3      OH2            29.3162664443      -40.1677039923      -29.2439133070  TIP3      11525           0.0000000000
     59490     11725  TIP3      H1             28.3744516099      -40.0481664552      -29.4959488143  TIP3      11525           0.0000000000
     59491     11725  TIP3      H2             29.6220593575      -39.2682913654      -29.0679009328  TIP3      11525           0.0000000000
     59492     11726  TIP3      OH2            28.6903499431       38.6792780796      -26.8419458128  TIP3      11526           0.0000000000
     59493     11726  TIP3      H1             28.9586201009       39.1058182923      -27.6774466923  TIP3      11526           0.0000000000
     59494     11726  TIP3      H2             29.2058026362       39.1202469666      -26.1412552264  TIP3      11526           0.0000000000
     59495     11727  TIP3      OH2            26.8087395435       37.4999678332      -25.1256262607  TIP3      11527           0.0000000000
     59496     11727  TIP3      H1             26.4649107347       38.1696949734      -24.4928149576  TIP3      11527           0.0000000000
     59497     11727  TIP3      H2             27.4817403102       38.0345261614      -25.5966843489  TIP3      11527           0.0000000000
     59498     11728  TIP3      OH2            22.4626189330       38.5505249753      -28.3983421409  TIP3      11528           0.0000000000
     59499     11728  TIP3      H1             22.3912901347       39.4465711513      -28.0342572359  TIP3      11528           0.0000000000
     59500     11728  TIP3      H2             23.3737310824       38.2866468854      -28.1558989006  TIP3      11528           0.0000000000
     59501     11729  TIP3      OH2            19.9729736438       36.4051007974      -21.5107734989  TIP3      11529           0.0000000000
     59502     11729  TIP3      H1             19.6683892353       36.5212638938      -22.4422318159  TIP3      11529           0.0000000000
     59503     11729  TIP3      H2             19.3988136746       35.6681121307      -21.2252050903  TIP3      11529           0.0000000000
     59504     11730  TIP3      OH2            32.6650003385       39.1364944274      -31.1615237688  TIP3      11530           0.0000000000
     59505     11730  TIP3      H1             33.2703623956       38.8515311984      -30.4500821781  TIP3      11530           0.0000000000
     59506     11730  TIP3      H2             31.8057523024       38.7640952191      -30.9228396789  TIP3      11530           0.0000000000
     59507     11731  TIP3      OH2            32.8727062063       38.0251400036      -26.0529122657  TIP3      11531           0.0000000000
     59508     11731  TIP3      H1             33.1289615153       37.5755926129      -25.2292197347  TIP3      11531           0.0000000000
     59509     11731  TIP3      H2             32.2900819026       37.3836350007      -26.5022265321  TIP3      11531           0.0000000000
     59510     11732  TIP3      OH2            18.5001500245       38.7484505159      -21.7005223722  TIP3      11532           0.0000000000
     59511     11732  TIP3      H1             18.7967028962       37.9483013077      -21.2361509023  TIP3      11532           0.0000000000
     59512     11732  TIP3      H2             18.5291976091       39.3945065482      -20.9766472980  TIP3      11532           0.0000000000
     59513     11733  TIP3      OH2            34.7893374524       37.9862550306      -29.5049542780  TIP3      11533           0.0000000000
     59514     11733  TIP3      H1             35.1633444964       37.3538365161      -30.1364799012  TIP3      11533           0.0000000000
     59515     11733  TIP3      H2             35.3735654918       38.7631368428      -29.5464026870  TIP3      11533           0.0000000000
     59516     11734  TIP3      OH2            17.0807041043       38.1799570430      -26.4164826254  TIP3      11534           0.0000000000
     59517     11734  TIP3      H1             16.1239705109       38.2782650636      -26.5892681947  TIP3      11534           0.0000000000
     59518     11734  TIP3      H2             17.4501282233       38.6647482695      -27.1577800557  TIP3      11534           0.0000000000
     59519     11735  TIP3      OH2            27.1549370986       37.7344830731      -22.1150750100  TIP3      11535           0.0000000000
     59520     11735  TIP3      H1             26.5303503556       37.0940198335      -21.7915650868  TIP3      11535           0.0000000000
     59521     11735  TIP3      H2             27.7211649460       37.1912815460      -22.6738109326  TIP3      11535           0.0000000000
     59522     11736  TIP3      OH2            32.2918625178       35.7984941925      -21.9666704635  TIP3      11536           0.0000000000
     59523     11736  TIP3      H1             32.9265812443       36.3531854128      -22.4791346713  TIP3      11536           0.0000000000
     59524     11736  TIP3      H2             31.4088024656       36.1174873759      -22.2383535042  TIP3      11536           0.0000000000
     59525     11737  TIP3      OH2            33.9574165901       36.9997148780      -23.6905817802  TIP3      11537           0.0000000000
     59526     11737  TIP3      H1             34.6352480884       36.4400974379      -24.1384394345  TIP3      11537           0.0000000000
     59527     11737  TIP3      H2             34.4526252743       37.8447655271      -23.5847947870  TIP3      11537           0.0000000000
     59528     11738  TIP3      OH2            19.5375682296       36.3421413499      -24.2905850632  TIP3      11538           0.0000000000
     59529     11738  TIP3      H1             18.7251942978       36.1466896543      -24.7830217331  TIP3      11538           0.0000000000
     59530     11738  TIP3      H2             19.9802436893       35.4687584860      -24.3081189616  TIP3      11538           0.0000000000
     59531     11739  TIP3      OH2            18.3394509611       36.0937978973      -28.4686602179  TIP3      11539           0.0000000000
     59532     11739  TIP3      H1             18.7831744852       36.7480572991      -29.0409463965  TIP3      11539           0.0000000000
     59533     11739  TIP3      H2             17.7047338524       36.6489361163      -27.9805835735  TIP3      11539           0.0000000000
     59534     11740  TIP3      OH2            24.0006584790       36.2484737871      -24.4479701221  TIP3      11540           0.0000000000
     59535     11740  TIP3      H1             24.8990020849       36.6278625034      -24.5180303789  TIP3      11540           0.0000000000
     59536     11740  TIP3      H2             23.9450685454       36.0391609984      -23.5237663767  TIP3      11540           0.0000000000
     59537     11741  TIP3      OH2            29.6667330747       36.3402257356      -22.7858946703  TIP3      11541           0.0000000000
     59538     11741  TIP3      H1             29.6685884993       36.3892489127      -23.7446992305  TIP3      11541           0.0000000000
     59539     11741  TIP3      H2             29.2858687457       35.4464893822      -22.6677658575  TIP3      11541           0.0000000000
     59540     11742  TIP3      OH2            30.9600313145       36.3497554268      -27.1457299299  TIP3      11542           0.0000000000
     59541     11742  TIP3      H1             30.2048388769       36.9247966373      -27.3099932952  TIP3      11542           0.0000000000
     59542     11742  TIP3      H2             30.5404618838       35.4888200400      -26.9093837815  TIP3      11542           0.0000000000
     59543     11743  TIP3      OH2            20.1380796535       38.0775770637      -29.9960198713  TIP3      11543           0.0000000000
     59544     11743  TIP3      H1             20.6218299802       37.4133356311      -30.5230009106  TIP3      11543           0.0000000000
     59545     11743  TIP3      H2             20.8246556399       38.3149874784      -29.3479084499  TIP3      11543           0.0000000000
     59546     11744  TIP3      OH2            25.1756025189       38.3571110347      -27.5878183663  TIP3      11544           0.0000000000
     59547     11744  TIP3      H1             25.3926729956       37.7085791809      -26.8918873633  TIP3      11544           0.0000000000
     59548     11744  TIP3      H2             25.1752113526       39.1800032801      -27.0770204680  TIP3      11544           0.0000000000
     59549     11745  TIP3      OH2            35.6242488068       39.1775896666      -23.7814614992  TIP3      11545           0.0000000000
     59550     11745  TIP3      H1             36.2648718480       39.1099338229      -23.0285229983  TIP3      11545           0.0000000000
     59551     11745  TIP3      H2             36.0969230826       38.7414878680      -24.5088291347  TIP3      11545           0.0000000000
     59552     11746  TIP3      OH2            37.2796445933       38.8047809395      -21.6288504250  TIP3      11546           0.0000000000
     59553     11746  TIP3      H1             37.6352729065       37.9490108792      -21.3142160219  TIP3      11546           0.0000000000
     59554     11746  TIP3      H2             37.4687977154       39.4278864697      -20.9263240741  TIP3      11546           0.0000000000
     59555     11747  TIP3      OH2            35.9816718674       38.1295980806      -26.4343170907  TIP3      11547           0.0000000000
     59556     11747  TIP3      H1             35.0155972132       38.2704628049      -26.5662808907  TIP3      11547           0.0000000000
     59557     11747  TIP3      H2             36.3422946738       38.6562740348      -27.1500461536  TIP3      11547           0.0000000000
     59558     11748  TIP3      OH2            38.1020314409       36.4001110817      -24.1154138177  TIP3      11548           0.0000000000
     59559     11748  TIP3      H1             37.4653216257       36.1600155431      -24.7978321042  TIP3      11548           0.0000000000
     59560     11748  TIP3      H2             38.8051815308       35.7488845733      -24.1904713157  TIP3      11548           0.0000000000
     59561     11749  TIP3      OH2            37.1926737249       36.1015782591      -28.4595438898  TIP3      11549           0.0000000000
     59562     11749  TIP3      H1             37.6267523316       36.7511046238      -29.0470093796  TIP3      11549           0.0000000000
     59563     11749  TIP3      H2             36.5336641024       36.6500724847      -27.9875395041  TIP3      11549           0.0000000000
     59564     11750  TIP3      OH2            38.9938431604       38.0711210151      -29.9444588654  TIP3      11550           0.0000000000
     59565     11750  TIP3      H1             39.4952122044       37.4500084164      -30.4910871106  TIP3      11550           0.0000000000
     59566     11750  TIP3      H2             39.6680316452       38.3860135425      -29.3329627128  TIP3      11550           0.0000000000
     59567     11751  SOD       SOD            10.1436495837      -27.0658632722       48.1840814854  SOD       1               1.0000000000
     59568     11752  SOD       SOD            11.5928192415       -1.3652723498      -20.7907637466  SOD       2               1.0000000000
     59569     11753  SOD       SOD            17.8393597165        2.9438271637       46.2809648917  SOD       3               1.0000000000
     59570     11754  SOD       SOD            18.7581952277       -2.9822544843       28.0181932884  SOD       4               1.0000000000
     59571     11755  SOD       SOD           -13.8775003739      -13.9028328419       29.8195371461  SOD       5               1.0000000000
     59572     11756  SOD       SOD           -24.9300440216       18.5517156326      -32.2055553166  SOD       6               1.0000000000
     59573     11757  SOD       SOD           -36.0086466518      -35.0327066598      -25.2006130550  SOD       7               1.0000000000
     59574     11758  SOD       SOD           -15.3830493154      -30.9602977740       20.5751816883  SOD       8               1.0000000000
     59575     11759  SOD       SOD            30.5524616632       35.1878874888       25.9952653628  SOD       9               1.0000000000
     59576     11760  SOD       SOD           -23.6918043644        7.9995700965       44.6313215138  SOD       10              1.0000000000
     59577     11761  SOD       SOD           -14.9819757568       -7.7390633587      -38.2947230453  SOD       11              1.0000000000
     59578     11762  SOD       SOD            23.5945139618      -36.7421853671       25.9160535305  SOD       12              1.0000000000
     59579     11763  SOD       SOD             7.1315961388      -32.2911508999       45.6593483201  SOD       13              1.0000000000
     59580     11764  SOD       SOD            23.4697994355       -1.0760060381       24.1607491914  SOD       14              1.0000000000
     59581     11765  SOD       SOD            24.0589580496        2.8044534407      -40.8592761425  SOD       15              1.0000000000
     59582     11766  SOD       SOD            -6.4165794870       32.2918027569       32.0430918118  SOD       16              1.0000000000
     59583     11767  SOD       SOD            37.1845682471       31.4827833356      -47.7303422455  SOD       17              1.0000000000
     59584     11768  SOD       SOD            32.0299216407      -10.0759581613       35.7624402031  SOD       18              1.0000000000
     59585     11769  SOD       SOD           -13.6278502095      -33.4685070081       37.1153906050  SOD       19              1.0000000000
     59586     11770  SOD       SOD            29.4182058424       28.6175377430      -23.2919071348  SOD       20              1.0000000000
     59587     11771  SOD       SOD            27.3618707065        7.4980373727      -37.6191607555  SOD       21              1.0000000000
     59588     11772  SOD       SOD             1.1693913481        5.3417001279       26.9894256590  SOD       22              1.0000000000
     59589     11773  SOD       SOD            -7.4029721099       31.8649600835       41.0828548129  SOD       23              1.0000000000
     59590     11774  SOD       SOD            39.8700095017       -2.2024913831      -22.4244728968  SOD       24              1.0000000000
     59591     11775  SOD       SOD             6.2068586460       -0.1216146366       40.8441756717  SOD       25              1.0000000000
     59592     11776  SOD       SOD           -28.5652872981       36.3988208090      -49.1630014876  SOD       26              1.0000000000
     59593     11777  SOD       SOD            30.1805036674       27.8689657591       40.8781332147  SOD       27              1.0000000000
     59594     11778  SOD       SOD            26.0119348571       15.1791852355       38.9567697083  SOD       28              1.0000000000
     59595     11779  SOD       SOD           -15.2754471124      -27.6075788081       27.8386636106  SOD       29              1.0000000000
     59596     11780  SOD       SOD            -5.9783441277       16.3866969121       40.6819913971  SOD       30              1.0000000000
     59597     11781  SOD       SOD           -34.8421460149        6.2849685344       28.9748927624  SOD       31              1.0000000000
     59598     11782  SOD       SOD            33.2368316940      -12.6702317541      -26.5752598834  SOD       32              1.0000000000
     59599     11783  SOD       SOD           -17.7066730965       30.8059874538       33.4150003570  SOD       33              1.0000000000
     59600     11784  SOD       SOD           -13.1381384961        4.6291603328       36.0247100020  SOD       34              1.0000000000
     59601     11785  SOD       SOD           -23.0842660749      -24.8344247058       29.8183034013  SOD       35              1.0000000000
     59602     11786  SOD       SOD            24.7657985806      -26.0808959467      -43.9990926628  SOD       36              1.0000000000
     59603     11787  SOD       SOD            18.6600072145      -21.9625404903      -25.0360899478  SOD       37              1.0000000000
     59604     11788  SOD       SOD            -6.2891407004      -34.2704716775       47.2355889089  SOD       38              1.0000000000
     59605     11789  SOD       SOD            37.1605580932       -3.3322113089      -43.7549981684  SOD       39              1.0000000000
     59606     11790  SOD       SOD           -12.5820897209       30.1872364995       21.2808468416  SOD       40              1.0000000000
     59607     11791  SOD       SOD            13.2152441688       14.8303521157       20.9001875734  SOD       41              1.0000000000
     59608     11792  SOD       SOD           -17.3551344808      -24.2951849326       40.3938950072  SOD       42              1.0000000000
     59609     11793  SOD       SOD           -20.3832618161       31.6694203131      -31.1115476506  SOD       43              1.0000000000
     59610     11794  SOD       SOD           -19.5910487315      -36.7622256936      -33.8927549421  SOD       44              1.0000000000
     59611     11795  SOD       SOD            -9.3785190125      -39.4146104311       25.9704134699  SOD       45              1.0000000000
     59612     11796  SOD       SOD           -35.8635906022       -1.6409856837       50.0354214586  SOD       46              1.0000000000
     59613     11797  SOD       SOD            26.8717712856      -11.7367445305      -23.0025671058  SOD       47              1.0000000000
     59614     11798  SOD       SOD            22.4591327824       15.8999850077       42.5796048195  SOD       48              1.0000000000
     59615     11799  SOD       SOD            37.6639748199      -22.4873667112      -37.5407517511  SOD       49              1.0000000000
     59616     11800  SOD       SOD            -0.5741537643       10.3369773590       36.4657383448  SOD       50              1.0000000000
     59617     11801  SOD       SOD            15.4353556335      -29.8370609089       30.9635687764  SOD       51              1.0000000000
     59618     11802  SOD       SOD            -5.1972766475        9.1670300495      -24.5127746095  SOD       52              1.0000000000
     59619     11803  SOD       SOD           -30.2411935060        2.8374309598      -34.0739849217  SOD       53              1.0000000000
     59620     11804  SOD       SOD             9.9902950374      -26.9933309797      -33.7558696180  SOD       54              1.0000000000
     59621     11805  SOD       SOD           -30.3889321244      -38.8637436065      -26.3367647699  SOD       55              1.0000000000
     59622     11806  SOD       SOD            15.7884954190      -26.8287515168       33.3276685626  SOD       56              1.0000000000
     59623     11807  SOD       SOD            16.7455868248      -27.4122586716       21.0290768956  SOD       57              1.0000000000
     59624     11808  SOD       SOD            10.5877070445      -10.1912483668      -46.5873411106  SOD       58              1.0000000000
     59625     11809  SOD       SOD            16.4470867857      -20.9689586231       24.0141372111  SOD       59              1.0000000000
     59626     11810  SOD       SOD           -22.1825605975        2.9018217541       24.5411000930  SOD       60              1.0000000000
     59627     11811  SOD       SOD            14.5790674249       23.5874007588       47.1095745353  SOD       61              1.0000000000
     59628     11812  SOD       SOD            23.3524394202       -5.7406297271       47.1747038959  SOD       62              1.0000000000
     59629     11813  SOD       SOD            11.2113489798      -38.4741358762       31.6593395107  SOD       63              1.0000000000
     59630     11814  SOD       SOD            35.7755295212      -35.1738329557      -40.4227852918  SOD       64              1.0000000000
     59631     11815  SOD       SOD            -5.0374131272        9.1078309934      -29.2943608930  SOD       65              1.0000000000
     59632     11816  SOD       SOD            -1.3416545811        1.7808525234      -38.4792242601  SOD       66              1.0000000000
     59633     11817  SOD       SOD            24.1887179983      -35.8148142952      -47.6310583831  SOD       67              1.0000000000
     59634     11818  SOD       SOD            31.8150311967      -28.1435366186      -49.7906282918  SOD       68              1.0000000000
     59635     11819  SOD       SOD           -26.2883035523       -2.1194282967       24.8759681713  SOD       69              1.0000000000
     59636     11820  SOD       SOD             5.5672054793      -33.8221817556       27.7725963061  SOD       70              1.0000000000
     59637     11821  SOD       SOD             2.7399572041      -21.0705937893      -48.8202721167  SOD       71              1.0000000000
     59638     11822  SOD       SOD           -22.2851541716       12.0353397360      -21.6371695138  SOD       72              1.0000000000
     59639     11823  SOD       SOD           -30.6086307883      -34.9310297493      -40.9540670512  SOD       73              1.0000000000
     59640     11824  SOD       SOD            19.3262286316        0.2264266095      -25.2683821529  SOD       74              1.0000000000
     59641     11825  SOD       SOD           -22.4366309359       -1.8279411489       29.9277521493  SOD       75              1.0000000000
     59642     11826  SOD       SOD            14.6411786529       12.8695606435      -22.1162378088  SOD       76              1.0000000000
     59643     11827  CLA       CLA            14.3541770726      -32.5141161653       24.4524250581  CLA       1              -1.0000000000
     59644     11828  CLA       CLA            -1.6269766100        4.0444114436       40.6991548428  CLA       2              -1.0000000000
     59645     11829  CLA       CLA            22.1085808117      -28.0721889388      -26.2172275467  CLA       3              -1.0000000000
     59646     11830  CLA       CLA           -14.7885981304       28.2208466842      -22.5099315019  CLA       4              -1.0000000000
     59647     11831  CLA       CLA            21.2560833380        4.7409000045       29.0381258596  CLA       5              -1.0000000000
     59648     11832  CLA       CLA            -4.5801137031       36.3000452945       31.2884548132  CLA       6              -1.0000000000
     59649     11833  CLA       CLA             5.7659703153      -17.4712858844      -24.9767522258  CLA       7              -1.0000000000
     59650     11834  CLA       CLA            17.7426645877      -30.1164873106      -26.9873769900  CLA       8              -1.0000000000
     59651     11835  CLA       CLA            29.2767492605      -25.2733121652       42.8567878677  CLA       9              -1.0000000000
     59652     11836  CLA       CLA           -31.4309446588       31.7616533667      -23.1048025519  CLA       10             -1.0000000000
     59653     11837  CLA       CLA           -16.3723976159       -2.5501035353       22.7039852356  CLA       11             -1.0000000000
     59654     11838  CLA       CLA             2.4685057350      -39.4847697361      -48.8420708854  CLA       12             -1.0000000000
     59655     11839  CLA       CLA            12.6733957478      -30.3801379238      -36.0075342046  CLA       13             -1.0000000000
     59656     11840  CLA       CLA             6.4740220661       15.8699871570      -24.5820767176  CLA       14             -1.0000000000
     59657     11841  CLA       CLA           -23.0820607435       -4.6910716886      -41.6396142751  CLA       15             -1.0000000000
     59658     11842  CLA       CLA           -16.5278882539      -12.8063490547       28.8523980580  CLA       16             -1.0000000000
     59659     11843  CLA       CLA            22.0800630994      -15.7742472133       39.6679650090  CLA       17             -1.0000000000
     59660     11844  CLA       CLA            16.8277901220       -6.7361283488      -37.3992125035  CLA       18             -1.0000000000
     59661     11845  CLA       CLA            21.1031614513        8.1748112113      -37.0254728148  CLA       19             -1.0000000000
     59662     11846  CLA       CLA             9.8826026060      -20.3445944545       20.7422146322  CLA       20             -1.0000000000
     59663     11847  CLA       CLA            25.5649906981       23.4914899880       41.3517059079  CLA       21             -1.0000000000
     59664     11848  CLA       CLA            16.7697667329      -26.4079689704       37.7653374967  CLA       22             -1.0000000000
     59665     11849  CLA       CLA            -5.5465572270       14.6000676377       22.5006191653  CLA       23             -1.0000000000
     59666     11850  CLA       CLA            27.7842733333      -27.6846588789      -40.6874358462  CLA       24             -1.0000000000
     59667     11851  CLA       CLA           -29.6982583345       21.9727604550      -30.0345568037  CLA       25             -1.0000000000
     59668     11852  CLA       CLA           -25.5989707385      -15.7378643704      -40.8874615635  CLA       26             -1.0000000000
     59669     11853  CLA       CLA           -18.6177865888        8.7832017035       43.8780090544  CLA       27             -1.0000000000
     59670     11854  CLA       CLA           -17.5158666266      -28.9538626878       25.7448235610  CLA       28             -1.0000000000
     59671     11855  CLA       CLA            21.1204032300       12.7931027817       43.9656894763  CLA       29             -1.0000000000
     59672     11856  CLA       CLA            10.2837245170        3.0147802954       24.5049142890  CLA       30             -1.0000000000
